srun -N 1 --ntasks-per-node 16 --nodelist nid01044 /global/project/projectdirs/jcesr/qchem/qc44/cnl_qc441/dist/exe/qcprog.cori.exe .pt_dft_170.0.in.59785.qcin.1 /dev/shm/eg_qchem/qchem59785/
Process 1 of 16 is on nid01044 - thread support 0
Process 2 of 16 is on nid01044 - thread support 0
Process 3 of 16 is on nid01044 - thread support 0
Process 4 of 16 is on nid01044 - thread support 0
Process 5 of 16 is on nid01044 - thread support 0
Process 6 of 16 is on nid01044 - thread support 0
Process 0 of 16 is on nid01044 - thread support 0
Process 15 of 16 is on nid01044 - thread support 0
initial socket setup ...start
initial socket setup ...done 
now start server 0 ... 
nid01044 10.128.4
Q-Chem Developer Version! Running on 10.128.4.*
                  Welcome to Q-Chem
     A Quantum Leap Into The Future Of Chemistry


 Q-Chem 4.4, Q-Chem, Inc., Pleasanton, CA (2016)

 Y. Shao,  Z. Gan,  E. Epifanovsky,  A. T. B. Gilbert,  M. Wormit,  
 J. Kussmann,  A. W. Lange,  A. Behn,  J. Deng,  X. Feng,  D. Ghosh,  
 M. Goldey,  P. R. Horn,  L. D. Jacobson,  I. Kaliman,  F.Rob,  
 R. Z. Khaliullin,  T. Kus,  A. Landau,  J. Liu,  E. I. Proynov,  Y. M. Rhee,  
 R. M. Richard,  M. A. Rohrdanz,  R. P. Steele,  E. J. Sundstrom,  
 H. L. Woodcock III,  P. M. Zimmerman,  D. Zuev,  B. Albrecht,  E. Alguire,  
 B. Austin,  S. A. Baeppler,  G. J. O. Beran,  Y. A. Bernard,  E. Berquist,  
 K. Brandhorst,  K. B. Bravaya,  S. T. Brown,  D. Casanova,  C.-M. Chang,  
 Y. Chen,  S. H. Chien,  K. D. Closser,  M. P. Coons,  D. L. Crittenden,  
 S. Dasgupta,  M. Diedenhofen,  R. A. DiStasio Jr.,  H. Do,  A. D. Dutoi,  
 R. G. Edgar,  P.-T. Fang,  S. Fatehi,  Q. Feng,  L. Fusti-Molnar,  
 A. Ghysels,  A. Golubeva-Zadorozhnaya,  J. Gomes,  A. Gunina,  
 M. W. D. Hanson-Heine,  P. H. P. Harbach,  A. W. Hauser,  E. G. Hohenstein,  
 Z. C. Holden,  K. Hui,  T.-C. Jagau,  H. Ji,  B. Kaduk,  K. Khistyaev,  
 Jaehoon Kim,  Jihan Kim,  R. A. King,  P. Klunzinger,  D. Kosenkov,  
 T. Kowalczyk,  C. M. Krauter,  A. Kunitsa,  K. U. Lao,  A. Laurent,  
 K. V. Lawler,  D. Lefrancois,  S. Lehtola,  S. V. Levchenko,  C. Y. Lin,  
 Y.-S. Lin,  F. Liu,  E. Livshits,  R. C. Lochan,  A. Luenser,  P. Manohar,  
 S. F. Manzer,  S.-P. Mao,  Y. Mao,  N. Mardirossian,  A. V. Marenich,  
 L. A. Martinez-Martinez,  S. A. Maurer,  N. J. Mayhall,  J.-M. Mewes,  
 A. F. Morrison,  K. Nanda,  C. M. Oana,  R. Olivares-Amaya,  D. P. O'Neill,  
 J. A. Parkhill,  T. M. Perrine,  R. Peverati,  P. A. Pieniazek,  F. Plasser,  
 A. Prociuk,  D. R. Rehn,  E. Rosta,  N. J. Russ,  N. Sergueev,  
 S. M. Sharada,  S. Sharma,  D. W. Small,  A. Sodt,  T. Stauch,  T. Stein,  
 D. Stuck,  Y.-C. Su,  A. J. W. Thom,  T. Tsuchimochi,  L. Vogt,  O. Vydrov,  
 T. Wang,  M. A. Watson,  J. Wenzel,  A. White,  C. F. Williams,  
 V. Vanovschi,  S. Yeganeh,  S. R. Yost,  Z.-Q. You,  I. Y. Zhang,  X. Zhang,  
 Y. Zhao,  B. R. Brooks,  G. K. L. Chan,  D. M. Chipman,  C. J. Cramer,  
 W. A. Goddard III,  M. S. Gordon,  W. J. Hehre,  A. Klamt,  
 H. F. Schaefer III,  M. W. Schmidt,  C. D. Sherrill,  D. G. Truhlar,  
 A. Warshel,  X. Xu,  A. Aspuru-Guzik,  R. Baer,  A. T. Bell,  N. A. Besley,  
 J.-D. Chai,  A. Dreuw,  B. D. Dunietz,  T. R. Furlani,  S. R. Gwaltney,  
 C.-P. Hsu,  Y. Jung,  J. Kong,  D. S. Lambrecht,  W. Liang,  C. Ochsenfeld,  
 V. A. Rassolov,  L. V. Slipchenko,  J. E. Subotnik,  T. Van Voorhis,  
 J. M. Herbert,  A. I. Krylov,  P. M. W. Gill,  M. Head-Gordon

 Contributors to earlier versions of Q-Chem not listed above: 
 R. D. Adamson,  J. Baker,  E. F. C. Byrd,  A. K. Chakraborty,  C.-L. Cheng,  
 H. Dachsel,  R. J. Doerksen,  G. Hawkins,  A. Heyden,  S. Hirata,  
 G. Kedziora,  F. J. Keil,  C. Kelley,  P. P. Korambath,  W. Kurlancheek,  
 A. M. Lee,  M. S. Lee,  D. Liotard,  I. Lotan,  P. E. Maslen,  N. Nair,  
 D. Neuhauser,  R. Olson,  B. Peters,  J. Ritchie,  N. E. Schultz,  
 N. Shenvi,  A. C. Simmonett,  K. S. Thanthiriwatte,  Q. Wu,  W. Zhang

 Please cite Q-Chem as follows:
 Y. Shao et al., Mol. Phys. 113, 184-215 (2015)
 DOI: 10.1080/00268976.2014.952696

 Q-Chem 4.4.1 for Intel X86 EM64T Linux

 Parts of Q-Chem use Armadillo 5.200.1 (Boston Tea Smuggler).
 http://arma.sourceforge.net/

 Q-Chem begins on Fri Sep  2 18:43:56 2016  

Host: nid01043
0

     Scratch files written to /dev/shm/eg_qchem/qchem59785.0//
 Parallel job on  16  processors

Checking the input file for inconsistencies... 	...done.

--------------------------------------------------------------
User input:
--------------------------------------------------------------
$molecule
 0  1
 S           1.82267924       -1.19997629        0.28714109
 C           3.20006180       -0.17260711        0.06528466
 C           2.82980603        1.10216298       -0.25610036
 C           1.41909100        1.26345446       -0.34254814
 C           0.71738150        0.10901545       -0.08456145
 H           0.93627498        2.19419272       -0.61095402
 C          -0.71741859       -0.10899254       -0.08455524
 S          -1.82924214        1.24295763       -0.18142721
 C          -1.41476359       -1.29216199       -0.01037512
 C          -3.20227062        0.18692634       -0.14294107
 C          -2.82676379       -1.12241048       -0.04269998
 H          -3.53222051       -1.94186877       -0.00354930
 H           4.19429620       -0.57452886        0.18632814
 H           3.53860725        1.89960515       -0.43610218
 H          -4.19810857        0.59940439       -0.19645081
 H          -0.92678343       -2.25689449        0.04054957
$end


$rem
         jobtype = opt
        exchange = b3lyp
           basis = 6-31++g**
  max_scf_cycles = 75
      mem_static = 100
       mem_total = 1500
$end


$opt
CONSTRAINT
tors 4 5 7 9 170.0
ENDCONSTRAINT
$end

--------------------------------------------------------------
 Atom   8: ( -1.8523081658,  1.2041416610,  0.1090758557)
         ->( -1.8523083325,  1.2041417018,  0.1090757392)
 Atom  10: ( -3.2054235949,  0.1260169873,  0.0162518343)
         ->( -3.2054235902,  0.1260168234,  0.0162518739)
 Atom  11: ( -2.8048740609, -1.1749229983, -0.0956936366)
         ->( -2.8048739099, -1.1749230890, -0.0956934104)
 Atom   9: ( -1.3897953520, -1.3177749219, -0.1230909379)
         ->( -1.3897951895, -1.3177748525, -0.1230913117)
 Atom   7: ( -0.7151628109, -0.1228287637, -0.0300463237)
         ->( -0.7151627572, -0.1228286224, -0.0300463179)
 Atom  16: ( -0.8840748567, -2.2683292273, -0.2331820369)
         ->( -0.8840746024, -2.2683290591, -0.2331827386)
 Atom  14: (  3.4948122869,  2.0053537922, -0.1669936355)
         ->(  3.4948125424,  2.0053536053, -0.1669940385)
 Atom  15: ( -4.2092932325,  0.5206962337,  0.0504380875)
         ->( -4.2092933071,  0.5206958629,  0.0504382240)
 ----------------------------------------------------------------
             Standard Nuclear Orientation (Angstroms)
    I     Atom           X                Y                Z
 ----------------------------------------------------------------
    1      S       1.8523083325    -1.2041417018     0.1090757392
    2      C       3.2054235902    -0.1260168234     0.0162518739
    3      C       2.8048739099     1.1749230890    -0.0956934104
    4      C       1.3897951895     1.3177748525    -0.1230913117
    5      C       0.7151627572     0.1228286224    -0.0300463179
    6      H       0.8840746024     2.2683290591    -0.2331827386
    7      C      -0.7151627572    -0.1228286224    -0.0300463179
    8      S      -1.8523083325     1.2041417018     0.1090757392
    9      C      -1.3897951895    -1.3177748525    -0.1230913117
   10      C      -3.2054235902     0.1260168234     0.0162518739
   11      C      -2.8048739099    -1.1749230890    -0.0956934104
   12      H      -3.4948125424    -2.0053536053    -0.1669940385
   13      H       4.2092933071    -0.5206958629     0.0504382240
   14      H       3.4948125424     2.0053536053    -0.1669940385
   15      H      -4.2092933071     0.5206958629     0.0504382240
   16      H      -0.8840746024    -2.2683290591    -0.2331827386
 ----------------------------------------------------------------
 Molecular Point Group                 C2    NOp =  2
 Largest Abelian Subgroup              C2    NOp =  2
 Nuclear Repulsion Energy =   630.3627931568 hartrees
 There are       43 alpha and       43 beta electrons
 Requested basis set is 6-31++G(d,p)
 There are 76 shells and 234 basis functions

 Total QAlloc Memory Limit   1500 MB
 Mega-Array Size        98 MB
 MEM_STATIC part       100 MB
 A cutoff of  1.0D-11 yielded   2491 shell pairs
 There are     24623 function pairs
 
 -------------------------------------------------------
 OpenMP Integral Computing Module                       
 Release: version 1.0, May 2013, Q-Chem Inc. Pittsburgh 
 -------------------------------------------------------
 Integral Job Info:
 Integral job number is                      11
 Integral operator is                         1
 short-range coefficients                     0
 long-range coefficients              100000000
 Omega coefficients                           0
 if combine SR and LR in K                    0
 Integral screening is                        0
 Integral computing path is                   2
 max size of driver memory is            800000
 size of driver memory is                593474
 size of scratch memory is             15166112
 max col of scratch BK array               1296
 max len of scratch array in speh3          155
 max len of scratch index in speh4           18
 max int batch size is                      520
 min int batch size is                       52
 fixed nKL is                                52
 max L of basis functions is                  2
 order of int derivative is                   0
 number of shells is                         76
 number of basis is                         234
 number of cartesian basis is               234
 number of contracted shell pairs          2491
 number of primitive shell pairs           8076
 maxK2 (contraction) of shell pair           36
 max number of K2 of shell pair               1
 max number of CS2 of shell pair            260
 max number of PS2 of shell pair           1548
 mem total for path MDJ                   51606
 -------------------------------------------------------
 Smallest overlap matrix eigenvalue = 8.44E-07

 Q-Chem warning in module /project/projectdirs/jcesr/qchem/qc44/cnl_qc441/compile/cori/qc_src/stvman/mkSTV.C, line 257:

 Overlap eigenvalue is smaller than square root of threshold

 Linear dependence detected in AO basis
 Number of orthogonalized atomic orbitals = 233
 Maximum deviation from orthogonality = 8.851E-11

 Scale SEOQF with 1.000000e-01/1.000000e-01/1.000000e-01

 Standard Electronic Orientation quadrupole field applied
 Nucleus-field energy     =     0.0000000222 hartrees
 Guess from superposition of atomic densities
 Warning:  Energy on first SCF cycle will be non-variational
 A restricted hybrid HF-DFT SCF calculation will be
 performed using Pulay DIIS extrapolation
 Exchange:     0.2000 Hartree-Fock + 0.0800 Slater + 0.7200 B88
 Correlation:  0.1900 VWN1RPA + 0.8100 LYP
 Using SG-1 standard quadrature grid
 SCF converges when DIIS error is below 1.0E-08
 ---------------------------------------
  Cycle       Energy         DIIS Error
 ---------------------------------------
    1   -1107.2327125230      4.46E-02
    2   -1318.9884104980      2.05E+00
    3   -1316.9847905274      1.90E+00
    4   -1703.2966057925      2.34E+00
    5   -1731.2520170705      2.50E+00
    6   -1710.6110565044      2.34E+00
    7   -1721.1352337878      2.27E+00
    8   -1628.5848439792      2.84E+00
    9   -1637.2833791855      1.80E+00
   10   -1723.3280246892      1.02E+00
   11   -1540.5459407316      9.83E-01
   12   -1206.6791636178      4.26E-01
   13   -1176.1390778196      3.82E-01
   14   -1198.6240146900      3.26E-01
   15   -1083.0843731862      1.51E-01
   16   -1102.0496351198      6.13E-02
   17   -1103.2811101338      1.12E-02
   18   -1104.1995492213      9.34E-03
   19   -1104.4896405756      6.69E-03
   20   -1104.8131413274      1.95E-03
   21   -1104.8362941021      7.72E-04
   22   -1104.8402607052      1.53E-04
   23   -1104.8404236689      4.58E-05
   24   -1104.8404400405      9.61E-06
   25   -1104.8404417229      4.77E-06
   26   -1104.8404417907      9.59E-07
   27   -1104.8404421013      3.08E-07
   28   -1104.8404424503      4.73E-08
   29   -1104.8404423749      2.03E-08
   30   -1104.8404424085      9.35E-09 Convergence criterion met
 ---------------------------------------
 SCF time:  CPU 13.16 s  wall 11.21 s
 SCF   energy in the final basis set = -1104.8404424085
 Total energy in the final basis set = -1104.8404424085
 
 --------------------------------------------------------------
             Orbital Energies (a.u.) and Symmetries
 --------------------------------------------------------------
 
 Alpha MOs, Restricted
 -- Occupied --                  
-88.919 -88.919 -10.239 -10.238 -10.224 -10.224 -10.204 -10.204
  1 A     1 B     2 A     2 B     3 B     3 A     4 A     4 B                  
-10.202 -10.202  -7.979  -7.979  -5.943  -5.943  -5.939  -5.939
  5 B     5 A     6 A     6 B     7 A     7 B     8 B     8 A                  
 -5.936  -5.936  -0.902  -0.880  -0.773  -0.751  -0.738  -0.707
  9 B     9 A    10 A    10 B    11 A    11 B    12 A    12 B                  
 -0.605  -0.582  -0.551  -0.535  -0.528  -0.479  -0.421  -0.419
 13 A    13 B    14 A    14 B    15 A    15 B    16 B    16 A                  
 -0.408  -0.405  -0.402  -0.379  -0.375  -0.358  -0.343  -0.284
 17 A    17 B    18 A    19 A    18 B    19 B    20 A    21 A                  
 -0.265  -0.258  -0.212
 20 B    22 A    21 B                                                          
 -- Virtual --                   
 -0.059  -0.006  -0.003   0.000   0.008   0.009   0.017   0.022
 23 A    24 A    22 B    23 B    25 A    24 B    25 B    26 A                  
  0.032   0.037   0.038   0.044   0.051   0.056   0.062   0.065
 27 A    28 A    26 B    29 A    30 A    27 B    28 B    29 B                  
  0.076   0.083   0.086   0.096   0.097   0.102   0.106   0.111
 30 B    31 B    31 A    32 B    32 A    33 A    34 A    35 A                  
  0.118   0.125   0.125   0.132   0.132   0.143   0.144   0.144
 33 B    34 B    36 A    35 B    37 A    36 B    38 A    37 B                  
  0.147   0.153   0.163   0.165   0.169   0.171   0.184   0.190
 39 A    38 B    40 A    39 B    41 A    40 B    42 A    41 B                  
  0.191   0.202   0.208   0.210   0.220   0.220   0.225   0.226
 43 A    42 B    43 B    44 A    44 B    45 A    46 A    45 B                  
  0.251   0.252   0.257   0.270   0.283   0.285   0.287   0.312
 46 B    47 A    47 B    48 A    48 B    49 A    49 B    50 A                  
  0.322   0.323   0.349   0.351   0.354   0.374   0.396   0.408
 50 B    51 A    52 A    53 A    51 B    52 B    54 A    53 B                  
  0.456   0.469   0.508   0.513   0.547   0.556   0.570   0.592
 54 B    55 A    55 B    56 A    57 A    56 B    57 B    58 A                  
  0.607   0.621   0.647   0.650   0.657   0.658   0.665   0.690
 59 A    58 B    60 A    59 B    61 A    60 B    61 B    62 A                  
  0.704   0.717   0.725   0.730   0.742   0.746   0.779   0.788
 63 A    62 B    64 A    63 B    64 B    65 A    66 A    65 B                  
  0.818   0.821   0.824   0.847   0.869   0.922   0.938   0.947
 67 A    66 B    67 B    68 A    69 A    68 B    70 A    69 B                  
  0.951   0.955   0.962   0.970   0.984   0.993   0.997   1.020
 70 B    71 A    72 A    71 B    72 B    73 B    73 A    74 B                  
  1.029   1.044   1.072   1.105   1.112   1.120   1.149   1.167
 74 A    75 A    76 A    77 A    75 B    76 B    77 B    78 A                  
  1.173   1.185   1.220   1.261   1.263   1.319   1.338   1.347
 78 B    79 A    80 A    79 B    81 A    80 B    82 A    81 B                  
  1.354   1.354   1.372   1.473   1.475   1.503   1.546   1.603
 83 A    82 B    84 A    83 B    85 A    84 B    85 B    86 A                  
  1.675   1.692   1.728   1.802   1.864   1.881   1.894   1.919
 87 A    86 B    88 A    89 A    90 A    87 B    88 B    91 A                  
  1.927   1.940   1.956   2.009   2.056   2.073   2.079   2.124
 89 B    92 A    90 B    93 A    91 B    94 A    92 B    93 B                  
  2.175   2.183   2.185   2.220   2.249   2.257   2.343   2.363
 95 A    94 B    96 A    97 A    95 B    96 B    98 A    97 B                  
  2.367   2.420   2.455   2.462   2.470   2.495   2.511   2.533
 99 A    98 B    99 B   100 A   101 A   100 B   102 A   103 A                  
  2.541   2.563   2.590   2.615   2.676   2.696   2.723   2.758
101 B   102 B   104 A   103 B   105 A   106 A   104 B   105 B                  
  2.869   2.879   2.939   2.944   3.152   3.216   3.272   3.281
107 A   106 B   108 A   107 B   108 B   109 A   109 B   110 A                  
  3.405   3.433   3.729   3.751   3.975   3.986   4.237   4.297
111 A   110 B   112 A   111 B   112 B   113 A   114 A   113 B                  
  4.311   4.322   4.410   4.538   4.663   4.721
115 A   114 B   116 A   115 B   117 A   116 B                                  
 
 Beta MOs, Restricted
 -- Occupied --                  
-88.919 -88.919 -10.239 -10.238 -10.224 -10.224 -10.204 -10.204
  1 A     1 B     2 A     2 B     3 B     3 A     4 A     4 B                  
-10.202 -10.202  -7.979  -7.979  -5.943  -5.943  -5.939  -5.939
  5 B     5 A     6 A     6 B     7 A     7 B     8 B     8 A                  
 -5.936  -5.936  -0.902  -0.880  -0.773  -0.751  -0.738  -0.707
  9 B     9 A    10 A    10 B    11 A    11 B    12 A    12 B                  
 -0.605  -0.582  -0.551  -0.535  -0.528  -0.479  -0.421  -0.419
 13 A    13 B    14 A    14 B    15 A    15 B    16 B    16 A                  
 -0.408  -0.405  -0.402  -0.379  -0.375  -0.358  -0.343  -0.284
 17 A    17 B    18 A    19 A    18 B    19 B    20 A    21 A                  
 -0.265  -0.258  -0.212
 20 B    22 A    21 B                                                          
 -- Virtual --                   
 -0.059  -0.006  -0.003   0.000   0.008   0.009   0.017   0.022
 23 A    24 A    22 B    23 B    25 A    24 B    25 B    26 A                  
  0.032   0.037   0.038   0.044   0.051   0.056   0.062   0.065
 27 A    28 A    26 B    29 A    30 A    27 B    28 B    29 B                  
  0.076   0.083   0.086   0.096   0.097   0.102   0.106   0.111
 30 B    31 B    31 A    32 B    32 A    33 A    34 A    35 A                  
  0.118   0.125   0.125   0.132   0.132   0.143   0.144   0.144
 33 B    34 B    36 A    35 B    37 A    36 B    38 A    37 B                  
  0.147   0.153   0.163   0.165   0.169   0.171   0.184   0.190
 39 A    38 B    40 A    39 B    41 A    40 B    42 A    41 B                  
  0.191   0.202   0.208   0.210   0.220   0.220   0.225   0.226
 43 A    42 B    43 B    44 A    44 B    45 A    46 A    45 B                  
  0.251   0.252   0.257   0.270   0.283   0.285   0.287   0.312
 46 B    47 A    47 B    48 A    48 B    49 A    49 B    50 A                  
  0.322   0.323   0.349   0.351   0.354   0.374   0.396   0.408
 50 B    51 A    52 A    53 A    51 B    52 B    54 A    53 B                  
  0.456   0.469   0.508   0.513   0.547   0.556   0.570   0.592
 54 B    55 A    55 B    56 A    57 A    56 B    57 B    58 A                  
  0.607   0.621   0.647   0.650   0.657   0.658   0.665   0.690
 59 A    58 B    60 A    59 B    61 A    60 B    61 B    62 A                  
  0.704   0.717   0.725   0.730   0.742   0.746   0.779   0.788
 63 A    62 B    64 A    63 B    64 B    65 A    66 A    65 B                  
  0.818   0.821   0.824   0.847   0.869   0.922   0.938   0.947
 67 A    66 B    67 B    68 A    69 A    68 B    70 A    69 B                  
  0.951   0.955   0.962   0.970   0.984   0.993   0.997   1.020
 70 B    71 A    72 A    71 B    72 B    73 B    73 A    74 B                  
  1.029   1.044   1.072   1.105   1.112   1.120   1.149   1.167
 74 A    75 A    76 A    77 A    75 B    76 B    77 B    78 A                  
  1.173   1.185   1.220   1.261   1.263   1.319   1.338   1.347
 78 B    79 A    80 A    79 B    81 A    80 B    82 A    81 B                  
  1.354   1.354   1.372   1.473   1.475   1.503   1.546   1.603
 83 A    82 B    84 A    83 B    85 A    84 B    85 B    86 A                  
  1.675   1.692   1.728   1.802   1.864   1.881   1.894   1.919
 87 A    86 B    88 A    89 A    90 A    87 B    88 B    91 A                  
  1.927   1.940   1.956   2.009   2.056   2.073   2.079   2.124
 89 B    92 A    90 B    93 A    91 B    94 A    92 B    93 B                  
  2.175   2.183   2.185   2.220   2.249   2.257   2.343   2.363
 95 A    94 B    96 A    97 A    95 B    96 B    98 A    97 B                  
  2.367   2.420   2.455   2.462   2.470   2.495   2.511   2.533
 99 A    98 B    99 B   100 A   101 A   100 B   102 A   103 A                  
  2.541   2.563   2.590   2.615   2.676   2.696   2.723   2.758
101 B   102 B   104 A   103 B   105 A   106 A   104 B   105 B                  
  2.869   2.879   2.939   2.944   3.152   3.216   3.272   3.281
107 A   106 B   108 A   107 B   108 B   109 A   109 B   110 A                  
  3.405   3.433   3.729   3.751   3.975   3.986   4.237   4.297
111 A   110 B   112 A   111 B   112 B   113 A   114 A   113 B                  
  4.311   4.322   4.410   4.538   4.663   4.721
115 A   114 B   116 A   115 B   117 A   116 B                                  
 --------------------------------------------------------------
 
          Ground-State Mulliken Net Atomic Charges

     Atom                 Charge (a.u.)
  ----------------------------------------
      1 S                    -0.139439
      2 C                     0.020223
      3 C                    -0.367214
      4 C                     0.438902
      5 C                    -0.390520
      6 H                     0.117911
      7 C                    -0.390520
      8 S                    -0.139439
      9 C                     0.438902
     10 C                     0.020223
     11 C                    -0.367214
     12 H                     0.120876
     13 H                     0.199261
     14 H                     0.120876
     15 H                     0.199261
     16 H                     0.117911
  ----------------------------------------
  Sum of atomic charges =     0.000000

 -----------------------------------------------------------------
                    Cartesian Multipole Moments
 -----------------------------------------------------------------
    Charge (ESU x 10^10)
                 0.0000
    Dipole Moment (Debye)
         X       0.0000      Y      -0.0000      Z      -0.1470
       Tot       0.1470
    Quadrupole Moments (Debye-Ang)
        XX     -61.1994     XY       1.6118     YY     -68.1022
        XZ       0.0000     YZ      -0.0000     ZZ     -78.7502
    Octopole Moments (Debye-Ang^2)
       XXX       0.0000    XXY      -0.0000    XYY       0.0000
       YYY      -0.0000    XXZ       0.5063    XYZ      -2.3321
       YYZ      -1.7923    XZZ       0.0000    YZZ      -0.0000
       ZZZ       0.9814
    Hexadecapole Moments (Debye-Ang^3)
      XXXX   -1883.5720   XXXY     -23.8691   XXYY    -420.6171
      XYYY      18.6410   YYYY    -560.9559   XXXZ       0.0000
      XXYZ      -0.0000   XYYZ       0.0000   YYYZ       0.0000
      XXZZ    -425.0695   XYZZ      -7.6605   YYZZ    -125.5757
      XZZZ       0.0000   YZZZ      -0.0000   ZZZZ    -107.6396
 -----------------------------------------------------------------
 Calculating analytic gradient of the SCF energy
 Gradient of SCF Energy
            1           2           3           4           5           6
    1   0.0000817  -0.0007961  -0.0006022  -0.0003403   0.0020662   0.0003341
    2   0.0018316   0.0023365  -0.0027789  -0.0022911   0.0031143  -0.0015392
    3   0.0001257  -0.0005901   0.0006016   0.0012504  -0.0009528  -0.0002558
            7           8           9          10          11          12
    1  -0.0020662  -0.0000817   0.0003403   0.0007961   0.0006022   0.0008787
    2  -0.0031143  -0.0018316   0.0022911  -0.0023365   0.0027789   0.0011775
    3  -0.0009528   0.0001257   0.0012504  -0.0005901   0.0006016   0.0000568
           13          14          15          16
    1  -0.0014914  -0.0008787   0.0014914  -0.0003341
    2   0.0004456  -0.0011775  -0.0004456   0.0015392
    3  -0.0002357   0.0000568  -0.0002357  -0.0002558
 Max gradient component =       3.114E-03
 RMS gradient           =       1.403E-03
 Gradient time:  CPU 1.92 s  wall 1.92 s
 Geometry Optimization Parameters
   NAtoms,    NIC,     NZ,  NCons,   NDum,   NFix, NCnnct, MaxDiis
       16     111       0       1       0       0       0       0


** CONSTRAINED OPTIMIZATION IN DELOCALIZED INTERNAL COORDINATES **
   Searching for a Minimum

   Optimization Cycle:   1

                       Coordinates (Angstroms)
     ATOM                X               Y               Z
      1  S         1.8523083325   -1.2041417018    0.1090757392
      2  C         3.2054235902   -0.1260168234    0.0162518739
      3  C         2.8048739099    1.1749230890   -0.0956934104
      4  C         1.3897951895    1.3177748525   -0.1230913117
      5  C         0.7151627572    0.1228286224   -0.0300463179
      6  H         0.8840746024    2.2683290591   -0.2331827386
      7  C        -0.7151627572   -0.1228286224   -0.0300463179
      8  S        -1.8523083325    1.2041417018    0.1090757392
      9  C        -1.3897951895   -1.3177748525   -0.1230913117
     10  C        -3.2054235902    0.1260168234    0.0162518739
     11  C        -2.8048739099   -1.1749230890   -0.0956934104
     12  H        -3.4948125424   -2.0053536053   -0.1669940385
     13  H         4.2092933071   -0.5206958629    0.0504382240
     14  H         3.4948125424    2.0053536053   -0.1669940385
     15  H        -4.2092933071    0.5206958629    0.0504382240
     16  H        -0.8840746024   -2.2683290591   -0.2331827386
   Point Group: c2    Number of degrees of freedom:    22


   Energy is  -1104.840442409

              Constraints and their Current Values
                                        Value     Constraint
   Dihedral:        4   5   7   9      170.000      170.000

 Attempting to Generate Delocalized Internal Coordinates

 21 Hessian modes will be used to form the next step
  Hessian Eigenvalues:
     0.045000    0.045000    0.045000    0.045002    0.045004    0.045013
     0.159937    0.159990    0.160000    0.221280    0.237833    0.249997
     0.296078    0.314672    0.357149    0.357543    0.360899    0.380793
     0.408411    0.470750    0.505998

 Minimum Search - Taking Simple RFO Step
 Searching for Lamda that Minimizes Along All modes
 Value Taken    Lamda =  -0.00028734
 Step Taken.  Stepsize is  0.034324

                             Maximum     Tolerance    Cnvgd?
         Gradient           0.006034      0.000300      NO
         Displacement       0.017070      0.001200      NO
         Energy change     *********      0.000001      NO


 New Cartesian Coordinates Obtained by Inverse Iteration

 Displacement from previous Coordinates is:  0.072561
 ----------------------------------------------------------------
             Standard Nuclear Orientation (Angstroms)
    I     Atom           X                Y                Z
 ----------------------------------------------------------------
    1      S       1.8564843202    -1.2053942834     0.1050671013
    2      C       3.2126299522    -0.1259920127     0.0210089574
    3      C       2.8123793489     1.1787104272    -0.0966777571
    4      C       1.3943717674     1.3212004099    -0.1287603748
    5      C       0.7163736516     0.1224302664    -0.0353728670
    6      H       0.8904763593     2.2754226830    -0.2369293666
    7      C      -0.7163736516    -0.1224302664    -0.0353728670
    8      S      -1.8564843202     1.2053942834     0.1050671013
    9      C      -1.3943717674    -1.3212004099    -0.1287603748
   10      C      -3.2126299522     0.1259920127     0.0210089574
   11      C      -2.8123793489    -1.1787104272    -0.0966777571
   12      H      -3.5037644427    -2.0110578211    -0.1643388308
   13      H       4.2184512475    -0.5212420130     0.0627611575
   14      H       3.5037644427     2.0110578211    -0.1643388308
   15      H      -4.2184512475     0.5212420130     0.0627611575
   16      H      -0.8904763593    -2.2754226830    -0.2369293666
 ----------------------------------------------------------------
 Molecular Point Group                 C2    NOp =  2
 Largest Abelian Subgroup              C2    NOp =  2
 Nuclear Repulsion Energy =   628.9559489561 hartrees
 There are       43 alpha and       43 beta electrons
 Applying Cartesian multipole field
    Component          Value
    ---------          -----
     (2,0,0)        1.00000E-11
     (0,2,0)        2.00000E-11
     (0,0,2)       -3.00000E-11
 Nucleus-field energy     =     0.0000000223 hartrees
 Requested basis set is 6-31++G(d,p)
 There are 76 shells and 234 basis functions
 A cutoff of  1.0D-11 yielded   2491 shell pairs
 There are     24623 function pairs
 Smallest overlap matrix eigenvalue = 8.69E-07

 Q-Chem warning in module /project/projectdirs/jcesr/qchem/qc44/cnl_qc441/compile/cori/qc_src/stvman/mkSTV.C, line 257:

 Overlap eigenvalue is smaller than square root of threshold

 Linear dependence detected in AO basis
 Number of orthogonalized atomic orbitals = 233
 Maximum deviation from orthogonality = 7.186E-11
 Guess MOs from SCF MO coefficient file
 Reading MOs from coefficient file
 Reading MOs from coefficient file
 A restricted hybrid HF-DFT SCF calculation will be
 performed using Pulay DIIS extrapolation
 Exchange:     0.2000 Hartree-Fock + 0.0800 Slater + 0.7200 B88
 Correlation:  0.1900 VWN1RPA + 0.8100 LYP
 Using SG-1 standard quadrature grid
 SCF converges when DIIS error is below 1.0E-08
 Geometry optimization detected.  Setting ReadMinima to 0
 Setting SaveMinima to 0
 ---------------------------------------
  Cycle       Energy         DIIS Error
 ---------------------------------------
    1   -1104.8159861697      2.93E-04
    2   -1104.8405162525      8.41E-05
    3   -1104.8404675312      1.19E-04
    4   -1104.8405738757      2.84E-05
    5   -1104.8405794209      6.16E-06
    6   -1104.8405796739      2.52E-06
    7   -1104.8405797251      6.28E-07
    8   -1104.8405797270      2.25E-07
    9   -1104.8405797256      3.81E-08
   10   -1104.8405797270      1.90E-08
   11   -1104.8405797261      2.05E-09 Convergence criterion met
 ---------------------------------------
 SCF time:  CPU 5.73 s  wall 5.10 s
 SCF   energy in the final basis set = -1104.8405797261
 Total energy in the final basis set = -1104.8405797261
 
 --------------------------------------------------------------
             Orbital Energies (a.u.) and Symmetries
 --------------------------------------------------------------
 
 Alpha MOs, Restricted
 -- Occupied --                  
-88.920 -88.920 -10.240 -10.240 -10.225 -10.225 -10.205 -10.205
  1 A     1 B     2 A     2 B     3 B     3 A     4 A     4 B                  
-10.204 -10.204  -7.979  -7.979  -5.943  -5.943  -5.940  -5.940
  5 B     5 A     6 A     6 B     7 A     7 B     8 B     8 A                  
 -5.936  -5.936  -0.900  -0.878  -0.772  -0.750  -0.737  -0.706
  9 B     9 A    10 A    10 B    11 A    11 B    12 A    12 B                  
 -0.604  -0.581  -0.551  -0.534  -0.527  -0.478  -0.420  -0.419
 13 A    13 B    14 A    14 B    15 A    15 B    16 B    16 A                  
 -0.407  -0.405  -0.402  -0.379  -0.374  -0.358  -0.343  -0.284
 17 A    17 B    18 A    19 A    18 B    19 B    20 A    21 A                  
 -0.265  -0.258  -0.212
 20 B    22 A    21 B                                                          
 -- Virtual --                   
 -0.059  -0.006  -0.004  -0.001   0.008   0.009   0.017   0.022
 23 A    24 A    22 B    23 B    25 A    24 B    25 B    26 A                  
  0.032   0.037   0.037   0.044   0.051   0.055   0.062   0.065
 27 A    28 A    26 B    29 A    30 A    27 B    28 B    29 B                  
  0.075   0.083   0.085   0.096   0.097   0.102   0.106   0.111
 30 B    31 B    31 A    32 B    32 A    33 A    34 A    35 A                  
  0.117   0.125   0.125   0.131   0.132   0.142   0.144   0.144
 33 B    34 B    36 A    35 B    37 A    36 B    37 B    38 A                  
  0.148   0.153   0.163   0.165   0.169   0.171   0.184   0.190
 39 A    38 B    40 A    39 B    41 A    40 B    42 A    41 B                  
  0.190   0.201   0.208   0.209   0.219   0.220   0.225   0.226
 43 A    42 B    43 B    44 A    44 B    45 A    46 A    45 B                  
  0.250   0.252   0.256   0.269   0.283   0.284   0.285   0.311
 46 B    47 A    47 B    48 A    48 B    49 A    49 B    50 A                  
  0.321   0.323   0.348   0.350   0.353   0.373   0.394   0.406
 50 B    51 A    52 A    53 A    51 B    52 B    54 A    53 B                  
  0.454   0.469   0.508   0.513   0.545   0.555   0.569   0.591
 54 B    55 A    55 B    56 A    57 A    56 B    57 B    58 A                  
  0.607   0.621   0.647   0.649   0.657   0.657   0.665   0.689
 59 A    58 B    60 A    59 B    60 B    61 A    61 B    62 A                  
  0.702   0.716   0.725   0.728   0.741   0.745   0.777   0.786
 63 A    62 B    64 A    63 B    64 B    65 A    66 A    65 B                  
  0.817   0.820   0.823   0.847   0.866   0.920   0.938   0.947
 67 A    66 B    67 B    68 A    69 A    68 B    70 A    69 B                  
  0.950   0.955   0.960   0.969   0.983   0.993   0.996   1.018
 70 B    71 A    72 A    71 B    72 B    73 B    73 A    74 B                  
  1.028   1.042   1.071   1.104   1.110   1.119   1.147   1.166
 74 A    75 A    76 A    77 A    75 B    76 B    77 B    78 A                  
  1.173   1.184   1.218   1.259   1.263   1.320   1.340   1.345
 78 B    79 A    80 A    79 B    81 A    80 B    82 A    81 B                  
  1.351   1.354   1.370   1.472   1.472   1.501   1.542   1.600
 83 A    82 B    84 A    83 B    85 A    84 B    85 B    86 A                  
  1.674   1.691   1.726   1.801   1.862   1.878   1.890   1.914
 87 A    86 B    88 A    89 A    90 A    87 B    88 B    91 A                  
  1.924   1.936   1.952   2.007   2.052   2.068   2.076   2.120
 89 B    92 A    90 B    93 A    91 B    94 A    92 B    93 B                  
  2.171   2.180   2.180   2.216   2.246   2.253   2.338   2.361
 95 A    94 B    96 A    97 A    95 B    96 B    98 A    97 B                  
  2.364   2.417   2.451   2.458   2.467   2.491   2.508   2.528
 99 A    98 B    99 B   100 A   101 A   100 B   102 A   103 A                  
  2.537   2.560   2.585   2.611   2.672   2.690   2.717   2.752
101 B   102 B   104 A   103 B   105 A   106 A   104 B   105 B                  
  2.863   2.874   2.932   2.937   3.144   3.207   3.267   3.276
107 A   106 B   108 A   107 B   108 B   109 A   109 B   110 A                  
  3.399   3.427   3.720   3.742   3.973   3.984   4.235   4.297
111 A   110 B   112 A   111 B   112 B   113 A   114 A   113 B                  
  4.308   4.319   4.409   4.535   4.659   4.715
115 A   114 B   116 A   115 B   117 A   116 B                                  
 
 Beta MOs, Restricted
 -- Occupied --                  
-88.920 -88.920 -10.240 -10.240 -10.225 -10.225 -10.205 -10.205
  1 A     1 B     2 A     2 B     3 B     3 A     4 A     4 B                  
-10.204 -10.204  -7.979  -7.979  -5.943  -5.943  -5.940  -5.940
  5 B     5 A     6 A     6 B     7 A     7 B     8 B     8 A                  
 -5.936  -5.936  -0.900  -0.878  -0.772  -0.750  -0.737  -0.706
  9 B     9 A    10 A    10 B    11 A    11 B    12 A    12 B                  
 -0.604  -0.581  -0.551  -0.534  -0.527  -0.478  -0.420  -0.419
 13 A    13 B    14 A    14 B    15 A    15 B    16 B    16 A                  
 -0.407  -0.405  -0.402  -0.379  -0.374  -0.358  -0.343  -0.284
 17 A    17 B    18 A    19 A    18 B    19 B    20 A    21 A                  
 -0.265  -0.258  -0.212
 20 B    22 A    21 B                                                          
 -- Virtual --                   
 -0.059  -0.006  -0.004  -0.001   0.008   0.009   0.017   0.022
 23 A    24 A    22 B    23 B    25 A    24 B    25 B    26 A                  
  0.032   0.037   0.037   0.044   0.051   0.055   0.062   0.065
 27 A    28 A    26 B    29 A    30 A    27 B    28 B    29 B                  
  0.075   0.083   0.085   0.096   0.097   0.102   0.106   0.111
 30 B    31 B    31 A    32 B    32 A    33 A    34 A    35 A                  
  0.117   0.125   0.125   0.131   0.132   0.142   0.144   0.144
 33 B    34 B    36 A    35 B    37 A    36 B    37 B    38 A                  
  0.148   0.153   0.163   0.165   0.169   0.171   0.184   0.190
 39 A    38 B    40 A    39 B    41 A    40 B    42 A    41 B                  
  0.190   0.201   0.208   0.209   0.219   0.220   0.225   0.226
 43 A    42 B    43 B    44 A    44 B    45 A    46 A    45 B                  
  0.250   0.252   0.256   0.269   0.283   0.284   0.285   0.311
 46 B    47 A    47 B    48 A    48 B    49 A    49 B    50 A                  
  0.321   0.323   0.348   0.350   0.353   0.373   0.394   0.406
 50 B    51 A    52 A    53 A    51 B    52 B    54 A    53 B                  
  0.454   0.469   0.508   0.513   0.545   0.555   0.569   0.591
 54 B    55 A    55 B    56 A    57 A    56 B    57 B    58 A                  
  0.607   0.621   0.647   0.649   0.657   0.657   0.665   0.689
 59 A    58 B    60 A    59 B    60 B    61 A    61 B    62 A                  
  0.702   0.716   0.725   0.728   0.741   0.745   0.777   0.786
 63 A    62 B    64 A    63 B    64 B    65 A    66 A    65 B                  
  0.817   0.820   0.823   0.847   0.866   0.920   0.938   0.947
 67 A    66 B    67 B    68 A    69 A    68 B    70 A    69 B                  
  0.950   0.955   0.960   0.969   0.983   0.993   0.996   1.018
 70 B    71 A    72 A    71 B    72 B    73 B    73 A    74 B                  
  1.028   1.042   1.071   1.104   1.110   1.119   1.147   1.166
 74 A    75 A    76 A    77 A    75 B    76 B    77 B    78 A                  
  1.173   1.184   1.218   1.259   1.263   1.320   1.340   1.345
 78 B    79 A    80 A    79 B    81 A    80 B    82 A    81 B                  
  1.351   1.354   1.370   1.472   1.472   1.501   1.542   1.600
 83 A    82 B    84 A    83 B    85 A    84 B    85 B    86 A                  
  1.674   1.691   1.726   1.801   1.862   1.878   1.890   1.914
 87 A    86 B    88 A    89 A    90 A    87 B    88 B    91 A                  
  1.924   1.936   1.952   2.007   2.052   2.068   2.076   2.120
 89 B    92 A    90 B    93 A    91 B    94 A    92 B    93 B                  
  2.171   2.180   2.180   2.216   2.246   2.253   2.338   2.361
 95 A    94 B    96 A    97 A    95 B    96 B    98 A    97 B                  
  2.364   2.417   2.451   2.458   2.467   2.491   2.508   2.528
 99 A    98 B    99 B   100 A   101 A   100 B   102 A   103 A                  
  2.537   2.560   2.585   2.611   2.672   2.690   2.717   2.752
101 B   102 B   104 A   103 B   105 A   106 A   104 B   105 B                  
  2.863   2.874   2.932   2.937   3.144   3.207   3.267   3.276
107 A   106 B   108 A   107 B   108 B   109 A   109 B   110 A                  
  3.399   3.427   3.720   3.742   3.973   3.984   4.235   4.297
111 A   110 B   112 A   111 B   112 B   113 A   114 A   113 B                  
  4.308   4.319   4.409   4.535   4.659   4.715
115 A   114 B   116 A   115 B   117 A   116 B                                  
 --------------------------------------------------------------
 
          Ground-State Mulliken Net Atomic Charges

     Atom                 Charge (a.u.)
  ----------------------------------------
      1 S                    -0.138157
      2 C                     0.020731
      3 C                    -0.365216
      4 C                     0.425977
      5 C                    -0.382915
      6 H                     0.118203
      7 C                    -0.382915
      8 S                    -0.138156
      9 C                     0.425977
     10 C                     0.020731
     11 C                    -0.365216
     12 H                     0.121418
     13 H                     0.199959
     14 H                     0.121418
     15 H                     0.199959
     16 H                     0.118203
  ----------------------------------------
  Sum of atomic charges =     0.000000

 -----------------------------------------------------------------
                    Cartesian Multipole Moments
 -----------------------------------------------------------------
    Charge (ESU x 10^10)
                 0.0000
    Dipole Moment (Debye)
         X       0.0000      Y      -0.0000      Z      -0.1290
       Tot       0.1290
    Quadrupole Moments (Debye-Ang)
        XX     -61.1474     XY       1.6388     YY     -68.0747
        XZ      -0.0000     YZ       0.0000     ZZ     -78.8594
    Octopole Moments (Debye-Ang^2)
       XXX       0.0000    XXY       0.0000    XYY       0.0000
       YYY       0.0000    XXZ       1.1001    XYZ      -2.3735
       YYZ      -1.6340    XZZ      -0.0000    YZZ       0.0000
       ZZZ       1.5242
    Hexadecapole Moments (Debye-Ang^3)
      XXXX   -1891.7020   XXXY     -24.1298   XXYY    -422.2450
      XYYY      18.4176   YYYY    -562.6216   XXXZ      -0.0000
      XXYZ       0.0000   XYYZ      -0.0000   YYYZ       0.0000
      XXZZ    -427.5768   XYZZ      -8.0336   YYZZ    -126.1153
      XZZZ      -0.0000   YZZZ       0.0000   ZZZZ    -107.9826
 -----------------------------------------------------------------
 Calculating analytic gradient of the SCF energy
 Gradient of SCF Energy
            1           2           3           4           5           6
    1  -0.0000603   0.0000558   0.0003464  -0.0001056   0.0003773  -0.0000876
    2   0.0000073  -0.0001124   0.0000255   0.0001532   0.0000514  -0.0000071
    3  -0.0000564   0.0000031   0.0000031   0.0008148  -0.0004174  -0.0002735
            7           8           9          10          11          12
    1  -0.0003773   0.0000603   0.0001056  -0.0000558  -0.0003464  -0.0001105
    2  -0.0000514  -0.0000073  -0.0001532   0.0001124  -0.0000255  -0.0000690
    3  -0.0004174  -0.0000564   0.0008148   0.0000031   0.0000031  -0.0000201
           13          14          15          16
    1   0.0000857   0.0001105  -0.0000857   0.0000876
    2  -0.0000434   0.0000690   0.0000434   0.0000071
    3  -0.0000537  -0.0000201  -0.0000537  -0.0002734
 Max gradient component =       8.148E-04
 RMS gradient           =       2.303E-04
 Gradient time:  CPU 1.89 s  wall 1.90 s
 Geometry Optimization Parameters
   NAtoms,    NIC,     NZ,  NCons,   NDum,   NFix, NCnnct, MaxDiis
       16     111       0       1       0       0       0       0

 Cartesian Hessian Update
 Hessian Updated using BFGS Update


** CONSTRAINED OPTIMIZATION IN DELOCALIZED INTERNAL COORDINATES **
   Searching for a Minimum

   Optimization Cycle:   2

                       Coordinates (Angstroms)
     ATOM                X               Y               Z
      1  S         1.8564843202   -1.2053942834    0.1050671013
      2  C         3.2126299522   -0.1259920127    0.0210089574
      3  C         2.8123793489    1.1787104272   -0.0966777571
      4  C         1.3943717674    1.3212004099   -0.1287603748
      5  C         0.7163736516    0.1224302664   -0.0353728670
      6  H         0.8904763593    2.2754226830   -0.2369293666
      7  C        -0.7163736516   -0.1224302664   -0.0353728670
      8  S        -1.8564843202    1.2053942834    0.1050671013
      9  C        -1.3943717674   -1.3212004099   -0.1287603748
     10  C        -3.2126299522    0.1259920127    0.0210089574
     11  C        -2.8123793489   -1.1787104272   -0.0966777571
     12  H        -3.5037644427   -2.0110578211   -0.1643388308
     13  H         4.2184512475   -0.5212420130    0.0627611575
     14  H         3.5037644427    2.0110578211   -0.1643388308
     15  H        -4.2184512475    0.5212420130    0.0627611575
     16  H        -0.8904763593   -2.2754226830   -0.2369293666
   Point Group: c2    Number of degrees of freedom:    22


   Energy is  -1104.840579726

              Constraints and their Current Values
                                        Value     Constraint
   Dihedral:        4   5   7   9      170.000      170.000
 Hessian Updated using BFGS Update

 21 Hessian modes will be used to form the next step
  Hessian Eigenvalues:
     0.042504    0.045000    0.045000    0.045001    0.045004    0.045316
     0.158848    0.159985    0.160035    0.221470    0.239057    0.249258
     0.295342    0.314562    0.356942    0.358322    0.360924    0.384883
     0.427374    0.473983    0.522721

 Minimum Search - Taking Simple RFO Step
 Searching for Lamda that Minimizes Along All modes
 Value Taken    Lamda =  -0.00000669
 Step Taken.  Stepsize is  0.009332

                             Maximum     Tolerance    Cnvgd?
         Gradient           0.000873      0.000300      NO
         Displacement       0.004977      0.001200      NO
         Energy change     -0.000137      0.000001      NO


 New Cartesian Coordinates Obtained by Inverse Iteration

 Displacement from previous Coordinates is:  0.013694
 ----------------------------------------------------------------
             Standard Nuclear Orientation (Angstroms)
    I     Atom           X                Y                Z
 ----------------------------------------------------------------
    1      S       1.8557490062    -1.2060033575     0.1043231185
    2      C       3.2115359211    -0.1261924350     0.0216816632
    3      C       2.8111769496     1.1783507156    -0.0969270700
    4      C       1.3937082688     1.3208059916    -0.1306956164
    5      C       0.7159736954     0.1220310774    -0.0372696470
    6      H       0.8903133516     2.2754503889    -0.2369177387
    7      C      -0.7159736954    -0.1220310774    -0.0372696470
    8      S      -1.8557490062     1.2060033575     0.1043231185
    9      C      -1.3937082688    -1.3208059916    -0.1306956164
   10      C      -3.2115359211     0.1261924350     0.0216816632
   11      C      -2.8111769496    -1.1783507156    -0.0969270700
   12      H      -3.5023445451    -2.0108200478    -0.1630461838
   13      H       4.2173075137    -0.5211278232     0.0656094942
   14      H       3.5023445451     2.0108200478    -0.1630461838
   15      H      -4.2173075137     0.5211278232     0.0656094942
   16      H      -0.8903133516    -2.2754503889    -0.2369177387
 ----------------------------------------------------------------
 Molecular Point Group                 C2    NOp =  2
 Largest Abelian Subgroup              C2    NOp =  2
 Nuclear Repulsion Energy =   629.0674042078 hartrees
 There are       43 alpha and       43 beta electrons
 Applying Cartesian multipole field
    Component          Value
    ---------          -----
     (2,0,0)        1.00000E-11
     (0,2,0)        2.00000E-11
     (0,0,2)       -3.00000E-11
 Nucleus-field energy     =     0.0000000223 hartrees
 Requested basis set is 6-31++G(d,p)
 There are 76 shells and 234 basis functions
 A cutoff of  1.0D-11 yielded   2491 shell pairs
 There are     24623 function pairs
 Smallest overlap matrix eigenvalue = 8.65E-07

 Q-Chem warning in module /project/projectdirs/jcesr/qchem/qc44/cnl_qc441/compile/cori/qc_src/stvman/mkSTV.C, line 257:

 Overlap eigenvalue is smaller than square root of threshold

 Linear dependence detected in AO basis
 Number of orthogonalized atomic orbitals = 233
 Maximum deviation from orthogonality = 5.569E-11
 Guess MOs from SCF MO coefficient file
 Reading MOs from coefficient file
 Reading MOs from coefficient file
 A restricted hybrid HF-DFT SCF calculation will be
 performed using Pulay DIIS extrapolation
 Exchange:     0.2000 Hartree-Fock + 0.0800 Slater + 0.7200 B88
 Correlation:  0.1900 VWN1RPA + 0.8100 LYP
 Using SG-1 standard quadrature grid
 SCF converges when DIIS error is below 1.0E-08
 Geometry optimization detected.  Setting ReadMinima to 0
 Setting SaveMinima to 0
 ---------------------------------------
  Cycle       Energy         DIIS Error
 ---------------------------------------
    1   -1104.8422218898      4.57E-05
    2   -1104.8405831905      9.77E-06
    3   -1104.8405812203      1.90E-05
    4   -1104.8405839939      2.87E-06
    5   -1104.8405840497      5.61E-07
    6   -1104.8405840511      2.85E-07
    7   -1104.8405840523      6.86E-08
    8   -1104.8405840526      3.64E-08
    9   -1104.8405840530      6.63E-09 Convergence criterion met
 ---------------------------------------
 SCF time:  CPU 4.75 s  wall 4.16 s
 SCF   energy in the final basis set = -1104.8405840530
 Total energy in the final basis set = -1104.8405840530
 
 --------------------------------------------------------------
             Orbital Energies (a.u.) and Symmetries
 --------------------------------------------------------------
 
 Alpha MOs, Restricted
 -- Occupied --                  
-88.920 -88.920 -10.240 -10.239 -10.225 -10.225 -10.205 -10.205
  1 A     1 B     2 A     2 B     3 B     3 A     4 A     4 B                  
-10.204 -10.204  -7.979  -7.979  -5.943  -5.943  -5.940  -5.940
  5 B     5 A     6 A     6 B     7 A     7 B     8 B     8 A                  
 -5.936  -5.936  -0.901  -0.878  -0.772  -0.750  -0.737  -0.706
  9 B     9 A    10 A    10 B    11 A    11 B    12 A    12 B                  
 -0.604  -0.581  -0.551  -0.535  -0.527  -0.478  -0.420  -0.419
 13 A    13 B    14 A    14 B    15 A    15 B    16 B    16 A                  
 -0.408  -0.405  -0.402  -0.379  -0.374  -0.358  -0.343  -0.284
 17 A    17 B    18 A    19 A    18 B    19 B    20 A    21 A                  
 -0.265  -0.258  -0.212
 20 B    22 A    21 B                                                          
 -- Virtual --                   
 -0.059  -0.006  -0.004  -0.001   0.008   0.009   0.017   0.022
 23 A    24 A    22 B    23 B    25 A    24 B    25 B    26 A                  
  0.032   0.037   0.037   0.044   0.051   0.055   0.062   0.065
 27 A    28 A    26 B    29 A    30 A    27 B    28 B    29 B                  
  0.075   0.083   0.085   0.096   0.097   0.102   0.106   0.111
 30 B    31 B    31 A    32 B    32 A    33 A    34 A    35 A                  
  0.117   0.125   0.125   0.132   0.132   0.142   0.144   0.144
 33 B    34 B    36 A    35 B    37 A    36 B    37 B    38 A                  
  0.148   0.153   0.163   0.165   0.169   0.171   0.184   0.190
 39 A    38 B    40 A    39 B    41 A    40 B    42 A    41 B                  
  0.190   0.201   0.208   0.210   0.219   0.220   0.225   0.226
 43 A    42 B    43 B    44 A    44 B    45 A    46 A    45 B                  
  0.250   0.252   0.256   0.269   0.283   0.284   0.285   0.311
 46 B    47 A    47 B    48 A    48 B    49 A    49 B    50 A                  
  0.321   0.323   0.348   0.350   0.353   0.373   0.394   0.406
 50 B    51 A    52 A    53 A    51 B    52 B    54 A    53 B                  
  0.454   0.469   0.508   0.513   0.545   0.555   0.569   0.591
 54 B    55 A    55 B    56 A    57 A    56 B    57 B    58 A                  
  0.607   0.621   0.647   0.649   0.657   0.657   0.665   0.689
 59 A    58 B    60 A    59 B    60 B    61 A    61 B    62 A                  
  0.702   0.716   0.725   0.728   0.742   0.745   0.777   0.786
 63 A    62 B    64 A    63 B    64 B    65 A    66 A    65 B                  
  0.817   0.820   0.823   0.847   0.866   0.921   0.938   0.948
 67 A    66 B    67 B    68 A    69 A    68 B    70 A    69 B                  
  0.951   0.955   0.960   0.969   0.983   0.993   0.996   1.018
 70 B    71 A    72 A    71 B    72 B    73 B    73 A    74 B                  
  1.028   1.042   1.071   1.104   1.110   1.119   1.147   1.166
 74 A    75 A    76 A    77 A    75 B    76 B    77 B    78 A                  
  1.173   1.184   1.218   1.259   1.263   1.321   1.341   1.344
 78 B    79 A    80 A    79 B    81 A    80 B    82 A    81 B                  
  1.351   1.354   1.370   1.471   1.473   1.500   1.543   1.601
 83 A    82 B    84 A    85 A    83 B    84 B    85 B    86 A                  
  1.674   1.691   1.726   1.801   1.862   1.878   1.890   1.914
 87 A    86 B    88 A    89 A    90 A    87 B    88 B    91 A                  
  1.924   1.936   1.953   2.008   2.052   2.068   2.077   2.120
 89 B    92 A    90 B    93 A    91 B    94 A    92 B    93 B                  
  2.171   2.180   2.181   2.217   2.246   2.253   2.338   2.361
 95 A    94 B    96 A    97 A    95 B    96 B    98 A    97 B                  
  2.365   2.418   2.451   2.458   2.467   2.491   2.508   2.527
 99 A    98 B    99 B   100 A   101 A   100 B   102 A   103 A                  
  2.538   2.560   2.586   2.611   2.672   2.691   2.718   2.753
101 B   102 B   104 A   103 B   105 A   106 A   104 B   105 B                  
  2.863   2.874   2.933   2.937   3.144   3.208   3.267   3.276
107 A   106 B   108 A   107 B   108 B   109 A   109 B   110 A                  
  3.399   3.428   3.721   3.742   3.973   3.984   4.235   4.296
111 A   110 B   112 A   111 B   112 B   113 A   114 A   113 B                  
  4.309   4.319   4.409   4.535   4.660   4.716
115 A   114 B   116 A   115 B   117 A   116 B                                  
 
 Beta MOs, Restricted
 -- Occupied --                  
-88.920 -88.920 -10.240 -10.239 -10.225 -10.225 -10.205 -10.205
  1 A     1 B     2 A     2 B     3 B     3 A     4 A     4 B                  
-10.204 -10.204  -7.979  -7.979  -5.943  -5.943  -5.940  -5.940
  5 B     5 A     6 A     6 B     7 A     7 B     8 B     8 A                  
 -5.936  -5.936  -0.901  -0.878  -0.772  -0.750  -0.737  -0.706
  9 B     9 A    10 A    10 B    11 A    11 B    12 A    12 B                  
 -0.604  -0.581  -0.551  -0.535  -0.527  -0.478  -0.420  -0.419
 13 A    13 B    14 A    14 B    15 A    15 B    16 B    16 A                  
 -0.408  -0.405  -0.402  -0.379  -0.374  -0.358  -0.343  -0.284
 17 A    17 B    18 A    19 A    18 B    19 B    20 A    21 A                  
 -0.265  -0.258  -0.212
 20 B    22 A    21 B                                                          
 -- Virtual --                   
 -0.059  -0.006  -0.004  -0.001   0.008   0.009   0.017   0.022
 23 A    24 A    22 B    23 B    25 A    24 B    25 B    26 A                  
  0.032   0.037   0.037   0.044   0.051   0.055   0.062   0.065
 27 A    28 A    26 B    29 A    30 A    27 B    28 B    29 B                  
  0.075   0.083   0.085   0.096   0.097   0.102   0.106   0.111
 30 B    31 B    31 A    32 B    32 A    33 A    34 A    35 A                  
  0.117   0.125   0.125   0.132   0.132   0.142   0.144   0.144
 33 B    34 B    36 A    35 B    37 A    36 B    37 B    38 A                  
  0.148   0.153   0.163   0.165   0.169   0.171   0.184   0.190
 39 A    38 B    40 A    39 B    41 A    40 B    42 A    41 B                  
  0.190   0.201   0.208   0.210   0.219   0.220   0.225   0.226
 43 A    42 B    43 B    44 A    44 B    45 A    46 A    45 B                  
  0.250   0.252   0.256   0.269   0.283   0.284   0.285   0.311
 46 B    47 A    47 B    48 A    48 B    49 A    49 B    50 A                  
  0.321   0.323   0.348   0.350   0.353   0.373   0.394   0.406
 50 B    51 A    52 A    53 A    51 B    52 B    54 A    53 B                  
  0.454   0.469   0.508   0.513   0.545   0.555   0.569   0.591
 54 B    55 A    55 B    56 A    57 A    56 B    57 B    58 A                  
  0.607   0.621   0.647   0.649   0.657   0.657   0.665   0.689
 59 A    58 B    60 A    59 B    60 B    61 A    61 B    62 A                  
  0.702   0.716   0.725   0.728   0.742   0.745   0.777   0.786
 63 A    62 B    64 A    63 B    64 B    65 A    66 A    65 B                  
  0.817   0.820   0.823   0.847   0.866   0.921   0.938   0.948
 67 A    66 B    67 B    68 A    69 A    68 B    70 A    69 B                  
  0.951   0.955   0.960   0.969   0.983   0.993   0.996   1.018
 70 B    71 A    72 A    71 B    72 B    73 B    73 A    74 B                  
  1.028   1.042   1.071   1.104   1.110   1.119   1.147   1.166
 74 A    75 A    76 A    77 A    75 B    76 B    77 B    78 A                  
  1.173   1.184   1.218   1.259   1.263   1.321   1.341   1.344
 78 B    79 A    80 A    79 B    81 A    80 B    82 A    81 B                  
  1.351   1.354   1.370   1.471   1.473   1.500   1.543   1.601
 83 A    82 B    84 A    85 A    83 B    84 B    85 B    86 A                  
  1.674   1.691   1.726   1.801   1.862   1.878   1.890   1.914
 87 A    86 B    88 A    89 A    90 A    87 B    88 B    91 A                  
  1.924   1.936   1.953   2.008   2.052   2.068   2.077   2.120
 89 B    92 A    90 B    93 A    91 B    94 A    92 B    93 B                  
  2.171   2.180   2.181   2.217   2.246   2.253   2.338   2.361
 95 A    94 B    96 A    97 A    95 B    96 B    98 A    97 B                  
  2.365   2.418   2.451   2.458   2.467   2.491   2.508   2.527
 99 A    98 B    99 B   100 A   101 A   100 B   102 A   103 A                  
  2.538   2.560   2.586   2.611   2.672   2.691   2.718   2.753
101 B   102 B   104 A   103 B   105 A   106 A   104 B   105 B                  
  2.863   2.874   2.933   2.937   3.144   3.208   3.267   3.276
107 A   106 B   108 A   107 B   108 B   109 A   109 B   110 A                  
  3.399   3.428   3.721   3.742   3.973   3.984   4.235   4.296
111 A   110 B   112 A   111 B   112 B   113 A   114 A   113 B                  
  4.309   4.319   4.409   4.535   4.660   4.716
115 A   114 B   116 A   115 B   117 A   116 B                                  
 --------------------------------------------------------------
 
          Ground-State Mulliken Net Atomic Charges

     Atom                 Charge (a.u.)
  ----------------------------------------
      1 S                    -0.137388
      2 C                     0.019939
      3 C                    -0.363746
      4 C                     0.422998
      5 C                    -0.381064
      6 H                     0.118053
      7 C                    -0.381064
      8 S                    -0.137388
      9 C                     0.422998
     10 C                     0.019939
     11 C                    -0.363746
     12 H                     0.121350
     13 H                     0.199857
     14 H                     0.121350
     15 H                     0.199857
     16 H                     0.118053
  ----------------------------------------
  Sum of atomic charges =    -0.000000

 -----------------------------------------------------------------
                    Cartesian Multipole Moments
 -----------------------------------------------------------------
    Charge (ESU x 10^10)
                 0.0000
    Dipole Moment (Debye)
         X       0.0000      Y      -0.0000      Z      -0.1198
       Tot       0.1198
    Quadrupole Moments (Debye-Ang)
        XX     -61.1684     XY       1.6376     YY     -68.0633
        XZ      -0.0000     YZ      -0.0000     ZZ     -78.8548
    Octopole Moments (Debye-Ang^2)
       XXX      -0.0000    XXY      -0.0000    XYY       0.0000
       YYY      -0.0000    XXZ       1.2860    XYZ      -2.3655
       YYZ      -1.5519    XZZ      -0.0000    YZZ      -0.0000
       ZZZ       1.6889
    Hexadecapole Moments (Debye-Ang^3)
      XXXX   -1890.7740   XXXY     -23.9682   XXYY    -422.0085
      XYYY      18.5962   YYYY    -562.6184   XXXZ      -0.0000
      XXYZ      -0.0000   XYYZ      -0.0000   YYYZ      -0.0000
      XXZZ    -427.2652   XYZZ      -7.9723   YYZZ    -126.1264
      XZZZ       0.0000   YZZZ      -0.0000   ZZZZ    -107.9957
 -----------------------------------------------------------------
 Calculating analytic gradient of the SCF energy
 Gradient of SCF Energy
            1           2           3           4           5           6
    1  -0.0000355  -0.0000507   0.0000521  -0.0000420   0.0001141  -0.0000137
    2  -0.0001128  -0.0000591   0.0000310   0.0001111  -0.0000361   0.0000106
    3  -0.0000399   0.0000012  -0.0000411   0.0006338  -0.0003809  -0.0001676
            7           8           9          10          11          12
    1  -0.0001141   0.0000355   0.0000420   0.0000507  -0.0000521  -0.0000155
    2   0.0000361   0.0001128  -0.0001111   0.0000591  -0.0000310  -0.0000125
    3  -0.0003809  -0.0000399   0.0006338   0.0000012  -0.0000411   0.0000134
           13          14          15          16
    1   0.0000291   0.0000155  -0.0000291   0.0000137
    2  -0.0000352   0.0000125   0.0000352  -0.0000106
    3  -0.0000190   0.0000134  -0.0000190  -0.0001676
 Max gradient component =       6.338E-04
 RMS gradient           =       1.625E-04
 Gradient time:  CPU 1.91 s  wall 1.91 s
 Geometry Optimization Parameters
   NAtoms,    NIC,     NZ,  NCons,   NDum,   NFix, NCnnct, MaxDiis
       16     111       0       1       0       0       0       0

 Cartesian Hessian Update
 Hessian Updated using BFGS Update


** CONSTRAINED OPTIMIZATION IN DELOCALIZED INTERNAL COORDINATES **
   Searching for a Minimum

   Optimization Cycle:   3

                       Coordinates (Angstroms)
     ATOM                X               Y               Z
      1  S         1.8557490062   -1.2060033575    0.1043231185
      2  C         3.2115359211   -0.1261924350    0.0216816632
      3  C         2.8111769496    1.1783507156   -0.0969270700
      4  C         1.3937082688    1.3208059916   -0.1306956164
      5  C         0.7159736954    0.1220310774   -0.0372696470
      6  H         0.8903133516    2.2754503889   -0.2369177387
      7  C        -0.7159736954   -0.1220310774   -0.0372696470
      8  S        -1.8557490062    1.2060033575    0.1043231185
      9  C        -1.3937082688   -1.3208059916   -0.1306956164
     10  C        -3.2115359211    0.1261924350    0.0216816632
     11  C        -2.8111769496   -1.1783507156   -0.0969270700
     12  H        -3.5023445451   -2.0108200478   -0.1630461838
     13  H         4.2173075137   -0.5211278232    0.0656094942
     14  H         3.5023445451    2.0108200478   -0.1630461838
     15  H        -4.2173075137    0.5211278232    0.0656094942
     16  H        -0.8903133516   -2.2754503889   -0.2369177387
   Point Group: c2    Number of degrees of freedom:    22


   Energy is  -1104.840584053

              Constraints and their Current Values
                                        Value     Constraint
   Dihedral:        4   5   7   9      170.000      170.000
 Hessian Updated using BFGS Update

 21 Hessian modes will be used to form the next step
  Hessian Eigenvalues:
     0.025179    0.044999    0.045000    0.045001    0.045004    0.045400
     0.158825    0.159995    0.160649    0.220991    0.245695    0.261089
     0.295575    0.314482    0.356896    0.358085    0.360849    0.391675
     0.449274    0.494331    0.517057

 Minimum Search - Taking Simple RFO Step
 Searching for Lamda that Minimizes Along All modes
 Value Taken    Lamda =  -0.00000234
 Step Taken.  Stepsize is  0.009153

                             Maximum     Tolerance    Cnvgd?
         Gradient           0.000184      0.000300     YES
         Displacement       0.005557      0.001200      NO
         Energy change     -0.000004      0.000001      NO


 New Cartesian Coordinates Obtained by Inverse Iteration

 Displacement from previous Coordinates is:  0.009635
 ----------------------------------------------------------------
             Standard Nuclear Orientation (Angstroms)
    I     Atom           X                Y                Z
 ----------------------------------------------------------------
    1      S       1.8558612228    -1.2058813634     0.1038826663
    2      C       3.2116691737    -0.1261084104     0.0221865214
    3      C       2.8110916947     1.1781844232    -0.0971806046
    4      C       1.3937976354     1.3204333606    -0.1324007055
    5      C       0.7158683960     0.1218198746    -0.0389715617
    6      H       0.8907009247     2.2753861494    -0.2364543353
    7      C      -0.7158683960    -0.1218198746    -0.0389715617
    8      S      -1.8558612228     1.2058813634     0.1038826663
    9      C      -1.3937976354    -1.3204333606    -0.1324007055
   10      C      -3.2116691737     0.1261084104     0.0221865214
   11      C      -2.8110916947    -1.1781844232    -0.0971806046
   12      H      -3.5021735313    -2.0107296090    -0.1621749005
   13      H       4.2173860039    -0.5208040542     0.0678709399
   14      H       3.5021735313     2.0107296090    -0.1621749005
   15      H      -4.2173860039     0.5208040542     0.0678709399
   16      H      -0.8907009247    -2.2753861494    -0.2364543353
 ----------------------------------------------------------------
 Molecular Point Group                 C2    NOp =  2
 Largest Abelian Subgroup              C2    NOp =  2
 Nuclear Repulsion Energy =   629.0894657427 hartrees
 There are       43 alpha and       43 beta electrons
 Applying Cartesian multipole field
    Component          Value
    ---------          -----
     (2,0,0)        1.00000E-11
     (0,2,0)        2.00000E-11
     (0,0,2)       -3.00000E-11
 Nucleus-field energy     =     0.0000000223 hartrees
 Requested basis set is 6-31++G(d,p)
 There are 76 shells and 234 basis functions
 A cutoff of  1.0D-11 yielded   2491 shell pairs
 There are     24623 function pairs
 Smallest overlap matrix eigenvalue = 8.66E-07

 Q-Chem warning in module /project/projectdirs/jcesr/qchem/qc44/cnl_qc441/compile/cori/qc_src/stvman/mkSTV.C, line 257:

 Overlap eigenvalue is smaller than square root of threshold

 Linear dependence detected in AO basis
 Number of orthogonalized atomic orbitals = 233
 Maximum deviation from orthogonality = 1.406E-10
 Guess MOs from SCF MO coefficient file
 Reading MOs from coefficient file
 Reading MOs from coefficient file
 A restricted hybrid HF-DFT SCF calculation will be
 performed using Pulay DIIS extrapolation
 Exchange:     0.2000 Hartree-Fock + 0.0800 Slater + 0.7200 B88
 Correlation:  0.1900 VWN1RPA + 0.8100 LYP
 Using SG-1 standard quadrature grid
 SCF converges when DIIS error is below 1.0E-08
 Geometry optimization detected.  Setting ReadMinima to 0
 Setting SaveMinima to 0
 ---------------------------------------
  Cycle       Energy         DIIS Error
 ---------------------------------------
    1   -1104.8414650310      3.69E-05
    2   -1104.8405850196      5.96E-06
    3   -1104.8405841589      1.24E-05
    4   -1104.8405853229      1.46E-06
    5   -1104.8405853358      4.49E-07
    6   -1104.8405853362      1.47E-07
    7   -1104.8405853341      3.29E-08
    8   -1104.8405853339      1.06E-08
    9   -1104.8405853356      5.25E-09 Convergence criterion met
 ---------------------------------------
 SCF time:  CPU 4.69 s  wall 4.11 s
 SCF   energy in the final basis set = -1104.8405853356
 Total energy in the final basis set = -1104.8405853356
 
 --------------------------------------------------------------
             Orbital Energies (a.u.) and Symmetries
 --------------------------------------------------------------
 
 Alpha MOs, Restricted
 -- Occupied --                  
-88.920 -88.920 -10.240 -10.239 -10.225 -10.225 -10.205 -10.205
  1 A     1 B     2 A     2 B     3 B     3 A     4 A     4 B                  
-10.204 -10.204  -7.979  -7.979  -5.943  -5.943  -5.940  -5.940
  5 B     5 A     6 A     6 B     7 A     7 B     8 B     8 A                  
 -5.936  -5.936  -0.901  -0.878  -0.772  -0.750  -0.737  -0.706
  9 B     9 A    10 A    10 B    11 A    11 B    12 A    12 B                  
 -0.605  -0.581  -0.551  -0.535  -0.527  -0.478  -0.420  -0.419
 13 A    13 B    14 A    14 B    15 A    15 B    16 B    16 A                  
 -0.408  -0.405  -0.402  -0.379  -0.374  -0.358  -0.343  -0.284
 17 A    17 B    18 A    19 A    18 B    19 B    20 A    21 A                  
 -0.265  -0.258  -0.212
 20 B    22 A    21 B                                                          
 -- Virtual --                   
 -0.059  -0.006  -0.004  -0.001   0.008   0.009   0.017   0.022
 23 A    24 A    22 B    23 B    25 A    24 B    25 B    26 A                  
  0.032   0.037   0.037   0.044   0.051   0.055   0.062   0.065
 27 A    28 A    26 B    29 A    30 A    27 B    28 B    29 B                  
  0.075   0.083   0.085   0.096   0.097   0.102   0.106   0.111
 30 B    31 B    31 A    32 B    32 A    33 A    34 A    35 A                  
  0.117   0.125   0.125   0.132   0.132   0.142   0.144   0.144
 33 B    34 B    36 A    35 B    37 A    36 B    37 B    38 A                  
  0.148   0.153   0.163   0.165   0.169   0.171   0.184   0.190
 39 A    38 B    40 A    39 B    41 A    40 B    42 A    41 B                  
  0.190   0.201   0.208   0.210   0.219   0.220   0.225   0.226
 43 A    42 B    43 B    44 A    44 B    45 A    46 A    45 B                  
  0.250   0.252   0.256   0.269   0.283   0.284   0.285   0.311
 46 B    47 A    47 B    48 A    48 B    49 A    49 B    50 A                  
  0.321   0.323   0.348   0.350   0.353   0.373   0.394   0.406
 50 B    51 A    52 A    53 A    51 B    52 B    54 A    53 B                  
  0.454   0.468   0.508   0.513   0.545   0.555   0.569   0.591
 54 B    55 A    55 B    56 A    57 A    56 B    57 B    58 A                  
  0.607   0.621   0.647   0.649   0.657   0.657   0.665   0.689
 59 A    58 B    60 A    59 B    61 A    60 B    61 B    62 A                  
  0.702   0.716   0.725   0.728   0.742   0.745   0.777   0.786
 63 A    62 B    64 A    63 B    64 B    65 A    66 A    65 B                  
  0.817   0.820   0.823   0.847   0.866   0.921   0.938   0.948
 67 A    66 B    67 B    68 A    69 A    68 B    70 A    69 B                  
  0.951   0.955   0.960   0.969   0.983   0.993   0.996   1.018
 70 B    71 A    72 A    71 B    72 B    73 B    73 A    74 B                  
  1.028   1.042   1.071   1.104   1.110   1.119   1.147   1.166
 74 A    75 A    76 A    77 A    75 B    76 B    77 B    78 A                  
  1.173   1.184   1.218   1.259   1.264   1.321   1.341   1.344
 78 B    79 A    80 A    79 B    81 A    80 B    82 A    81 B                  
  1.350   1.354   1.370   1.471   1.473   1.499   1.543   1.601
 83 A    82 B    84 A    85 A    83 B    84 B    85 B    86 A                  
  1.674   1.691   1.726   1.801   1.862   1.878   1.890   1.914
 87 A    86 B    88 A    89 A    90 A    87 B    88 B    91 A                  
  1.924   1.936   1.953   2.008   2.052   2.068   2.077   2.120
 89 B    92 A    90 B    93 A    91 B    94 A    92 B    93 B                  
  2.172   2.180   2.181   2.217   2.246   2.254   2.338   2.361
 95 A    94 B    96 A    97 A    95 B    96 B    98 A    97 B                  
  2.365   2.418   2.451   2.458   2.468   2.491   2.508   2.527
 99 A    98 B    99 B   100 A   101 A   100 B   102 A   103 A                  
  2.538   2.560   2.586   2.611   2.672   2.691   2.718   2.753
101 B   102 B   104 A   103 B   105 A   106 A   104 B   105 B                  
  2.863   2.874   2.933   2.938   3.144   3.208   3.268   3.276
107 A   106 B   108 A   107 B   108 B   109 A   109 B   110 A                  
  3.399   3.428   3.721   3.743   3.973   3.984   4.235   4.296
111 A   110 B   112 A   111 B   112 B   113 A   114 A   113 B                  
  4.309   4.319   4.409   4.535   4.660   4.716
115 A   114 B   116 A   115 B   117 A   116 B                                  
 
 Beta MOs, Restricted
 -- Occupied --                  
-88.920 -88.920 -10.240 -10.239 -10.225 -10.225 -10.205 -10.205
  1 A     1 B     2 A     2 B     3 B     3 A     4 A     4 B                  
-10.204 -10.204  -7.979  -7.979  -5.943  -5.943  -5.940  -5.940
  5 B     5 A     6 A     6 B     7 A     7 B     8 B     8 A                  
 -5.936  -5.936  -0.901  -0.878  -0.772  -0.750  -0.737  -0.706
  9 B     9 A    10 A    10 B    11 A    11 B    12 A    12 B                  
 -0.605  -0.581  -0.551  -0.535  -0.527  -0.478  -0.420  -0.419
 13 A    13 B    14 A    14 B    15 A    15 B    16 B    16 A                  
 -0.408  -0.405  -0.402  -0.379  -0.374  -0.358  -0.343  -0.284
 17 A    17 B    18 A    19 A    18 B    19 B    20 A    21 A                  
 -0.265  -0.258  -0.212
 20 B    22 A    21 B                                                          
 -- Virtual --                   
 -0.059  -0.006  -0.004  -0.001   0.008   0.009   0.017   0.022
 23 A    24 A    22 B    23 B    25 A    24 B    25 B    26 A                  
  0.032   0.037   0.037   0.044   0.051   0.055   0.062   0.065
 27 A    28 A    26 B    29 A    30 A    27 B    28 B    29 B                  
  0.075   0.083   0.085   0.096   0.097   0.102   0.106   0.111
 30 B    31 B    31 A    32 B    32 A    33 A    34 A    35 A                  
  0.117   0.125   0.125   0.132   0.132   0.142   0.144   0.144
 33 B    34 B    36 A    35 B    37 A    36 B    37 B    38 A                  
  0.148   0.153   0.163   0.165   0.169   0.171   0.184   0.190
 39 A    38 B    40 A    39 B    41 A    40 B    42 A    41 B                  
  0.190   0.201   0.208   0.210   0.219   0.220   0.225   0.226
 43 A    42 B    43 B    44 A    44 B    45 A    46 A    45 B                  
  0.250   0.252   0.256   0.269   0.283   0.284   0.285   0.311
 46 B    47 A    47 B    48 A    48 B    49 A    49 B    50 A                  
  0.321   0.323   0.348   0.350   0.353   0.373   0.394   0.406
 50 B    51 A    52 A    53 A    51 B    52 B    54 A    53 B                  
  0.454   0.468   0.508   0.513   0.545   0.555   0.569   0.591
 54 B    55 A    55 B    56 A    57 A    56 B    57 B    58 A                  
  0.607   0.621   0.647   0.649   0.657   0.657   0.665   0.689
 59 A    58 B    60 A    59 B    61 A    60 B    61 B    62 A                  
  0.702   0.716   0.725   0.728   0.742   0.745   0.777   0.786
 63 A    62 B    64 A    63 B    64 B    65 A    66 A    65 B                  
  0.817   0.820   0.823   0.847   0.866   0.921   0.938   0.948
 67 A    66 B    67 B    68 A    69 A    68 B    70 A    69 B                  
  0.951   0.955   0.960   0.969   0.983   0.993   0.996   1.018
 70 B    71 A    72 A    71 B    72 B    73 B    73 A    74 B                  
  1.028   1.042   1.071   1.104   1.110   1.119   1.147   1.166
 74 A    75 A    76 A    77 A    75 B    76 B    77 B    78 A                  
  1.173   1.184   1.218   1.259   1.264   1.321   1.341   1.344
 78 B    79 A    80 A    79 B    81 A    80 B    82 A    81 B                  
  1.350   1.354   1.370   1.471   1.473   1.499   1.543   1.601
 83 A    82 B    84 A    85 A    83 B    84 B    85 B    86 A                  
  1.674   1.691   1.726   1.801   1.862   1.878   1.890   1.914
 87 A    86 B    88 A    89 A    90 A    87 B    88 B    91 A                  
  1.924   1.936   1.953   2.008   2.052   2.068   2.077   2.120
 89 B    92 A    90 B    93 A    91 B    94 A    92 B    93 B                  
  2.172   2.180   2.181   2.217   2.246   2.254   2.338   2.361
 95 A    94 B    96 A    97 A    95 B    96 B    98 A    97 B                  
  2.365   2.418   2.451   2.458   2.468   2.491   2.508   2.527
 99 A    98 B    99 B   100 A   101 A   100 B   102 A   103 A                  
  2.538   2.560   2.586   2.611   2.672   2.691   2.718   2.753
101 B   102 B   104 A   103 B   105 A   106 A   104 B   105 B                  
  2.863   2.874   2.933   2.938   3.144   3.208   3.268   3.276
107 A   106 B   108 A   107 B   108 B   109 A   109 B   110 A                  
  3.399   3.428   3.721   3.743   3.973   3.984   4.235   4.296
111 A   110 B   112 A   111 B   112 B   113 A   114 A   113 B                  
  4.309   4.319   4.409   4.535   4.660   4.716
115 A   114 B   116 A   115 B   117 A   116 B                                  
 --------------------------------------------------------------
 
          Ground-State Mulliken Net Atomic Charges

     Atom                 Charge (a.u.)
  ----------------------------------------
      1 S                    -0.136750
      2 C                     0.019699
      3 C                    -0.362585
      4 C                     0.419661
      5 C                    -0.379138
      6 H                     0.117926
      7 C                    -0.379138
      8 S                    -0.136750
      9 C                     0.419661
     10 C                     0.019698
     11 C                    -0.362585
     12 H                     0.121347
     13 H                     0.199840
     14 H                     0.121347
     15 H                     0.199840
     16 H                     0.117926
  ----------------------------------------
  Sum of atomic charges =    -0.000000

 -----------------------------------------------------------------
                    Cartesian Multipole Moments
 -----------------------------------------------------------------
    Charge (ESU x 10^10)
                -0.0000
    Dipole Moment (Debye)
         X       0.0000      Y      -0.0000      Z      -0.1115
       Tot       0.1115
    Quadrupole Moments (Debye-Ang)
        XX     -61.1620     XY       1.6418     YY     -68.0663
        XZ      -0.0000     YZ       0.0000     ZZ     -78.8534
    Octopole Moments (Debye-Ang^2)
       XXX       0.0000    XXY      -0.0000    XYY       0.0000
       YYY       0.0000    XXZ       1.4345    XYZ      -2.3595
       YYZ      -1.4787    XZZ       0.0000    YZZ       0.0000
       ZZZ       1.8236
    Hexadecapole Moments (Debye-Ang^3)
      XXXX   -1890.6904   XXXY     -23.9277   XXYY    -422.0283
      XYYY      18.6426   YYYY    -562.4871   XXXZ       0.0000
      XXYZ       0.0000   XYYZ      -0.0000   YYYZ       0.0000
      XXZZ    -427.2593   XYZZ      -7.9730   YYZZ    -126.1096
      XZZZ       0.0000   YZZZ       0.0000   ZZZZ    -108.0208
 -----------------------------------------------------------------
 Calculating analytic gradient of the SCF energy
 Gradient of SCF Energy
            1           2           3           4           5           6
    1   0.0000043   0.0000190  -0.0000290   0.0000021  -0.0000901   0.0000336
    2   0.0000146   0.0000036  -0.0000432   0.0000157  -0.0001056  -0.0000180
    3  -0.0000175  -0.0000149  -0.0000491   0.0004583  -0.0003700  -0.0000493
            7           8           9          10          11          12
    1   0.0000901  -0.0000043  -0.0000021  -0.0000190   0.0000290   0.0000067
    2   0.0001056  -0.0000146  -0.0000157  -0.0000036   0.0000432   0.0000324
    3  -0.0003700  -0.0000175   0.0004583  -0.0000149  -0.0000491   0.0000361
           13          14          15          16
    1  -0.0000079  -0.0000067   0.0000079  -0.0000336
    2  -0.0000117  -0.0000324   0.0000117   0.0000180
    3   0.0000063   0.0000361   0.0000063  -0.0000493
 Max gradient component =       4.583E-04
 RMS gradient           =       1.257E-04
 Gradient time:  CPU 1.96 s  wall 1.91 s
 Geometry Optimization Parameters
   NAtoms,    NIC,     NZ,  NCons,   NDum,   NFix, NCnnct, MaxDiis
       16     111       0       1       0       0       0       0

 Cartesian Hessian Update
 Hessian Updated using BFGS Update


** CONSTRAINED OPTIMIZATION IN DELOCALIZED INTERNAL COORDINATES **
   Searching for a Minimum

   Optimization Cycle:   4

                       Coordinates (Angstroms)
     ATOM                X               Y               Z
      1  S         1.8558612228   -1.2058813634    0.1038826663
      2  C         3.2116691737   -0.1261084104    0.0221865214
      3  C         2.8110916947    1.1781844232   -0.0971806046
[...]
  3.399   3.428   3.721   3.743   3.973   3.984   4.235   4.296
111 A   110 B   112 A   111 B   112 B   113 A   114 A   113 B                  
  4.309   4.319   4.409   4.535   4.660   4.716
115 A   114 B   116 A   115 B   117 A   116 B                                  
 --------------------------------------------------------------
 
          Ground-State Mulliken Net Atomic Charges

     Atom                 Charge (a.u.)
  ----------------------------------------
      1 S                    -0.136646
      2 C                     0.019512
      3 C                    -0.362146
      4 C                     0.418879
      5 C                    -0.378700
      6 H                     0.117900
      7 C                    -0.378700
      8 S                    -0.136646
      9 C                     0.418879
     10 C                     0.019512
     11 C                    -0.362146
     12 H                     0.121365
     13 H                     0.199836
     14 H                     0.121365
     15 H                     0.199836
     16 H                     0.117900
  ----------------------------------------
  Sum of atomic charges =    -0.000000

 -----------------------------------------------------------------
                    Cartesian Multipole Moments
 -----------------------------------------------------------------
    Charge (ESU x 10^10)
                -0.0000
    Dipole Moment (Debye)
         X       0.0000      Y      -0.0000      Z      -0.1102
       Tot       0.1102
    Quadrupole Moments (Debye-Ang)
        XX     -61.1634     XY       1.6418     YY     -68.0646
        XZ       0.0000     YZ       0.0000     ZZ     -78.8545
    Octopole Moments (Debye-Ang^2)
       XXX       0.0000    XXY      -0.0000    XYY      -0.0000
       YYY      -0.0000    XXZ       1.4439    XYZ      -2.3628
       YYZ      -1.4684    XZZ       0.0000    YZZ      -0.0000
       ZZZ       1.8358
    Hexadecapole Moments (Debye-Ang^3)
      XXXX   -1890.7546   XXXY     -23.9326   XXYY    -422.0233
      XYYY      18.6239   YYYY    -562.4975   XXXZ       0.0000
      XXYZ       0.0000   XYYZ       0.0000   YYYZ       0.0000
      XXZZ    -427.2639   XYZZ      -7.9838   YYZZ    -126.1174
      XZZZ       0.0000   YZZZ      -0.0000   ZZZZ    -108.0341
 -----------------------------------------------------------------
 Calculating analytic gradient of the SCF energy
 Gradient of SCF Energy
            1           2           3           4           5           6
    1  -0.0000004   0.0000020  -0.0000211   0.0000182  -0.0000328   0.0000219
    2  -0.0000142  -0.0000120  -0.0000133   0.0000277  -0.0001029  -0.0000044
    3  -0.0000001  -0.0000133  -0.0000382   0.0004114  -0.0003784  -0.0000158
            7           8           9          10          11          12
    1   0.0000328   0.0000004  -0.0000182  -0.0000020   0.0000211  -0.0000064
    2   0.0001029   0.0000142  -0.0000277   0.0000120   0.0000133   0.0000161
    3  -0.0003784  -0.0000001   0.0004114  -0.0000133  -0.0000382   0.0000265
           13          14          15          16
    1  -0.0000092   0.0000064   0.0000092  -0.0000219
    2  -0.0000172  -0.0000161   0.0000172   0.0000044
    3   0.0000079   0.0000265   0.0000079  -0.0000158
 Max gradient component =       4.114E-04
 RMS gradient           =       1.172E-04
 Gradient time:  CPU 1.91 s  wall 1.90 s
 Geometry Optimization Parameters
   NAtoms,    NIC,     NZ,  NCons,   NDum,   NFix, NCnnct, MaxDiis
       16     111       0       1       0       0       0       0

 Cartesian Hessian Update
 Hessian Updated using BFGS Update


** CONSTRAINED OPTIMIZATION IN DELOCALIZED INTERNAL COORDINATES **
   Searching for a Minimum

   Optimization Cycle:   5

                       Coordinates (Angstroms)
     ATOM                X               Y               Z
      1  S         1.8558337067   -1.2058767937    0.1039542114
      2  C         3.2116352299   -0.1260880806    0.0223141897
      3  C         2.8111585253    1.1782534502   -0.0972384405
      4  C         1.3938498002    1.3204871154   -0.1327054742
      5  C         0.7159161363    0.1218441824   -0.0392755266
      6  H         0.8906748982    2.2754935441   -0.2360937460
      7  C        -0.7159161363   -0.1218441824   -0.0392755266
      8  S        -1.8558337067    1.2058767937    0.1039542114
      9  C        -1.3938498002   -1.3204871154   -0.1327054742
     10  C        -3.2116352299    0.1260880806    0.0223141897
     11  C        -2.8111585253   -1.1782534502   -0.0972384405
     12  H        -3.5022980308   -2.0107780145   -0.1623465035
     13  H         4.2173213654   -0.5208537640    0.0681493098
     14  H         3.5022980308    2.0107780145   -0.1623465035
     15  H        -4.2173213654    0.5208537640    0.0681493098
     16  H        -0.8906748982   -2.2754935441   -0.2360937460
   Point Group: c2    Number of degrees of freedom:    22


   Energy is  -1104.840585499

              Constraints and their Current Values
                                        Value     Constraint
   Dihedral:        4   5   7   9      170.000      170.000
 Hessian Updated using BFGS Update

 21 Hessian modes will be used to form the next step
  Hessian Eigenvalues:
     0.015672    0.039787    0.045000    0.045001    0.045011    0.045702
     0.156674    0.160036    0.160705    0.226020    0.246588    0.278331
     0.295549    0.315769    0.357412    0.361031    0.361334    0.387520
     0.437260    0.491650    0.533189

 Minimum Search - Taking Simple RFO Step
 Searching for Lamda that Minimizes Along All modes
 Value Taken    Lamda =   0.00000000
 Step Taken.  Stepsize is  0.001893

                             Maximum     Tolerance    Cnvgd?
         Gradient           0.000046      0.000300     YES
         Displacement       0.001539      0.001200      NO
         Energy change     -0.000000      0.000001     YES

 Final energy is   -1104.84058549910     


 ******************************
 **  OPTIMIZATION CONVERGED  **
 ******************************

                       Coordinates (Angstroms)
     ATOM                X               Y               Z
      1  S         1.8558337067   -1.2058767937    0.1039542114
      2  C         3.2116352299   -0.1260880806    0.0223141897
      3  C         2.8111585253    1.1782534502   -0.0972384405
      4  C         1.3938498002    1.3204871154   -0.1327054742
      5  C         0.7159161363    0.1218441824   -0.0392755266
      6  H         0.8906748982    2.2754935441   -0.2360937460
      7  C        -0.7159161363   -0.1218441824   -0.0392755266
      8  S        -1.8558337067    1.2058767937    0.1039542114
      9  C        -1.3938498002   -1.3204871154   -0.1327054742
     10  C        -3.2116352299    0.1260880806    0.0223141897
     11  C        -2.8111585253   -1.1782534502   -0.0972384405
     12  H        -3.5022980308   -2.0107780145   -0.1623465035
     13  H         4.2173213654   -0.5208537640    0.0681493098
     14  H         3.5022980308    2.0107780145   -0.1623465035
     15  H        -4.2173213654    0.5208537640    0.0681493098
     16  H        -0.8906748982   -2.2754935441   -0.2360937460

Z-matrix Print:
$molecule
0 1
S 
C  1 1.735168
H  2 1.081363 1 119.835561
C  2 1.369665 1 111.608366 3 179.965481 0
H  4 1.083979 2 123.381655 1 -179.907008 0
C  4 1.424869 2 112.834650 1 0.361645 0
H  6 1.084394 4 123.493155 2 179.215717 0
C  6 1.380242 4 113.590082 2 -0.029099 0
C  8 1.452421 6 129.043722 4 -179.895313 0
C  9 1.380242 8 129.043722 6 -169.999981 0
H  10 1.084394 9 122.912232 8 0.854876 0
C  10 1.424869 9 113.590082 8 -179.895313 0
H  12 1.083979 10 123.783112 9 -179.759194 0
C  12 1.369665 10 112.834650 9 -0.029099 0
H  14 1.081363 12 128.556062 10 -179.676646 0
S  14 1.735168 12 111.608366 10 0.361645 0
$end

 
 --------------------------------------------------------------
             Orbital Energies (a.u.) and Symmetries
 --------------------------------------------------------------
 
 Alpha MOs, Restricted
 -- Occupied --                  
-88.920 -88.920 -10.240 -10.239 -10.225 -10.225 -10.205 -10.205
  1 A     1 B     2 A     2 B     3 B     3 A     4 A     4 B                  
-10.204 -10.204  -7.979  -7.979  -5.943  -5.943  -5.940  -5.940
  5 B     5 A     6 A     6 B     7 A     7 B     8 B     8 A                  
 -5.936  -5.936  -0.901  -0.878  -0.772  -0.750  -0.737  -0.706
  9 B     9 A    10 A    10 B    11 A    11 B    12 A    12 B                  
 -0.604  -0.581  -0.551  -0.535  -0.527  -0.478  -0.420  -0.419
 13 A    13 B    14 A    14 B    15 A    15 B    16 B    16 A                  
 -0.408  -0.405  -0.402  -0.379  -0.374  -0.358  -0.343  -0.284
 17 A    17 B    18 A    19 A    18 B    19 B    20 A    21 A                  
 -0.265  -0.258  -0.212
 20 B    22 A    21 B                                                          
 -- Virtual --                   
 -0.059  -0.006  -0.004  -0.001   0.008   0.009   0.017   0.022
 23 A    24 A    22 B    23 B    25 A    24 B    25 B    26 A                  
  0.032   0.037   0.037   0.044   0.051   0.055   0.062   0.065
 27 A    28 A    26 B    29 A    30 A    27 B    28 B    29 B                  
  0.075   0.083   0.085   0.096   0.097   0.102   0.106   0.111
 30 B    31 B    31 A    32 B    32 A    33 A    34 A    35 A                  
  0.117   0.125   0.125   0.132   0.132   0.142   0.144   0.144
 33 B    34 B    36 A    35 B    37 A    36 B    37 B    38 A                  
  0.148   0.153   0.163   0.165   0.169   0.171   0.184   0.190
 39 A    38 B    40 A    39 B    41 A    40 B    42 A    41 B                  
  0.190   0.201   0.208   0.210   0.219   0.220   0.225   0.226
 43 A    42 B    43 B    44 A    44 B    45 A    46 A    45 B                  
  0.250   0.252   0.256   0.269   0.283   0.284   0.285   0.311
 46 B    47 A    47 B    48 A    48 B    49 A    49 B    50 A                  
  0.321   0.323   0.348   0.349   0.353   0.373   0.394   0.406
 50 B    51 A    52 A    53 A    51 B    52 B    54 A    53 B                  
  0.454   0.468   0.508   0.513   0.545   0.555   0.569   0.591
 54 B    55 A    55 B    56 A    57 A    56 B    57 B    58 A                  
  0.607   0.621   0.647   0.649   0.657   0.657   0.665   0.689
 59 A    58 B    60 A    59 B    61 A    60 B    61 B    62 A                  
  0.702   0.716   0.725   0.728   0.742   0.745   0.777   0.786
 63 A    62 B    64 A    63 B    64 B    65 A    66 A    65 B                  
  0.817   0.820   0.823   0.847   0.866   0.921   0.938   0.948
 67 A    66 B    67 B    68 A    69 A    68 B    70 A    69 B                  
  0.951   0.955   0.960   0.969   0.983   0.993   0.996   1.018
 70 B    71 A    72 A    71 B    72 B    73 B    73 A    74 B                  
  1.028   1.042   1.071   1.104   1.110   1.119   1.147   1.166
 74 A    75 A    76 A    77 A    75 B    76 B    77 B    78 A                  
  1.173   1.184   1.218   1.259   1.264   1.321   1.341   1.344
 78 B    79 A    80 A    79 B    81 A    80 B    82 A    81 B                  
  1.350   1.354   1.370   1.471   1.473   1.499   1.543   1.601
 83 A    82 B    84 A    85 A    83 B    84 B    85 B    86 A                  
  1.674   1.691   1.726   1.801   1.862   1.878   1.890   1.914
 87 A    86 B    88 A    89 A    90 A    87 B    88 B    91 A                  
  1.924   1.936   1.953   2.008   2.052   2.068   2.077   2.120
 89 B    92 A    90 B    93 A    91 B    94 A    92 B    93 B                  
  2.172   2.180   2.181   2.217   2.246   2.254   2.338   2.361
 95 A    94 B    96 A    97 A    95 B    96 B    98 A    97 B                  
  2.365   2.418   2.451   2.458   2.468   2.491   2.508   2.527
 99 A    98 B    99 B   100 A   101 A   100 B   102 A   103 A                  
  2.538   2.560   2.586   2.611   2.672   2.691   2.718   2.753
101 B   102 B   104 A   103 B   105 A   106 A   104 B   105 B                  
  2.863   2.874   2.933   2.937   3.144   3.208   3.268   3.276
107 A   106 B   108 A   107 B   108 B   109 A   109 B   110 A                  
  3.399   3.428   3.721   3.743   3.973   3.984   4.235   4.296
111 A   110 B   112 A   111 B   112 B   113 A   114 A   113 B                  
  4.309   4.319   4.409   4.535   4.660   4.716
115 A   114 B   116 A   115 B   117 A   116 B                                  
 
 Beta MOs, Restricted
 -- Occupied --                  
-88.920 -88.920 -10.240 -10.239 -10.225 -10.225 -10.205 -10.205
  1 A     1 B     2 A     2 B     3 B     3 A     4 A     4 B                  
-10.204 -10.204  -7.979  -7.979  -5.943  -5.943  -5.940  -5.940
  5 B     5 A     6 A     6 B     7 A     7 B     8 B     8 A                  
 -5.936  -5.936  -0.901  -0.878  -0.772  -0.750  -0.737  -0.706
  9 B     9 A    10 A    10 B    11 A    11 B    12 A    12 B                  
 -0.604  -0.581  -0.551  -0.535  -0.527  -0.478  -0.420  -0.419
 13 A    13 B    14 A    14 B    15 A    15 B    16 B    16 A                  
 -0.408  -0.405  -0.402  -0.379  -0.374  -0.358  -0.343  -0.284
 17 A    17 B    18 A    19 A    18 B    19 B    20 A    21 A                  
 -0.265  -0.258  -0.212
 20 B    22 A    21 B                                                          
 -- Virtual --                   
 -0.059  -0.006  -0.004  -0.001   0.008   0.009   0.017   0.022
 23 A    24 A    22 B    23 B    25 A    24 B    25 B    26 A                  
  0.032   0.037   0.037   0.044   0.051   0.055   0.062   0.065
 27 A    28 A    26 B    29 A    30 A    27 B    28 B    29 B                  
  0.075   0.083   0.085   0.096   0.097   0.102   0.106   0.111
 30 B    31 B    31 A    32 B    32 A    33 A    34 A    35 A                  
  0.117   0.125   0.125   0.132   0.132   0.142   0.144   0.144
 33 B    34 B    36 A    35 B    37 A    36 B    37 B    38 A                  
  0.148   0.153   0.163   0.165   0.169   0.171   0.184   0.190
 39 A    38 B    40 A    39 B    41 A    40 B    42 A    41 B                  
  0.190   0.201   0.208   0.210   0.219   0.220   0.225   0.226
 43 A    42 B    43 B    44 A    44 B    45 A    46 A    45 B                  
  0.250   0.252   0.256   0.269   0.283   0.284   0.285   0.311
 46 B    47 A    47 B    48 A    48 B    49 A    49 B    50 A                  
  0.321   0.323   0.348   0.349   0.353   0.373   0.394   0.406
 50 B    51 A    52 A    53 A    51 B    52 B    54 A    53 B                  
  0.454   0.468   0.508   0.513   0.545   0.555   0.569   0.591
 54 B    55 A    55 B    56 A    57 A    56 B    57 B    58 A                  
  0.607   0.621   0.647   0.649   0.657   0.657   0.665   0.689
 59 A    58 B    60 A    59 B    61 A    60 B    61 B    62 A                  
  0.702   0.716   0.725   0.728   0.742   0.745   0.777   0.786
 63 A    62 B    64 A    63 B    64 B    65 A    66 A    65 B                  
  0.817   0.820   0.823   0.847   0.866   0.921   0.938   0.948
 67 A    66 B    67 B    68 A    69 A    68 B    70 A    69 B                  
  0.951   0.955   0.960   0.969   0.983   0.993   0.996   1.018
 70 B    71 A    72 A    71 B    72 B    73 B    73 A    74 B                  
  1.028   1.042   1.071   1.104   1.110   1.119   1.147   1.166
 74 A    75 A    76 A    77 A    75 B    76 B    77 B    78 A                  
  1.173   1.184   1.218   1.259   1.264   1.321   1.341   1.344
 78 B    79 A    80 A    79 B    81 A    80 B    82 A    81 B                  
  1.350   1.354   1.370   1.471   1.473   1.499   1.543   1.601
 83 A    82 B    84 A    85 A    83 B    84 B    85 B    86 A                  
  1.674   1.691   1.726   1.801   1.862   1.878   1.890   1.914
 87 A    86 B    88 A    89 A    90 A    87 B    88 B    91 A                  
  1.924   1.936   1.953   2.008   2.052   2.068   2.077   2.120
 89 B    92 A    90 B    93 A    91 B    94 A    92 B    93 B                  
  2.172   2.180   2.181   2.217   2.246   2.254   2.338   2.361
 95 A    94 B    96 A    97 A    95 B    96 B    98 A    97 B                  
  2.365   2.418   2.451   2.458   2.468   2.491   2.508   2.527
 99 A    98 B    99 B   100 A   101 A   100 B   102 A   103 A                  
  2.538   2.560   2.586   2.611   2.672   2.691   2.718   2.753
101 B   102 B   104 A   103 B   105 A   106 A   104 B   105 B                  
  2.863   2.874   2.933   2.937   3.144   3.208   3.268   3.276
107 A   106 B   108 A   107 B   108 B   109 A   109 B   110 A                  
  3.399   3.428   3.721   3.743   3.973   3.984   4.235   4.296
111 A   110 B   112 A   111 B   112 B   113 A   114 A   113 B                  
  4.309   4.319   4.409   4.535   4.660   4.716
115 A   114 B   116 A   115 B   117 A   116 B                                  
 --------------------------------------------------------------
 
          Ground-State Mulliken Net Atomic Charges

     Atom                 Charge (a.u.)
  ----------------------------------------
      1 S                    -0.136646
      2 C                     0.019512
      3 C                    -0.362146
      4 C                     0.418879
      5 C                    -0.378700
      6 H                     0.117900
      7 C                    -0.378700
      8 S                    -0.136646
      9 C                     0.418879
     10 C                     0.019512
     11 C                    -0.362146
     12 H                     0.121365
     13 H                     0.199836
     14 H                     0.121365
     15 H                     0.199836
     16 H                     0.117900
  ----------------------------------------
  Sum of atomic charges =    -0.000000

 -----------------------------------------------------------------
                    Cartesian Multipole Moments
 -----------------------------------------------------------------
    Charge (ESU x 10^10)
                -0.0000
    Dipole Moment (Debye)
         X       0.0000      Y      -0.0000      Z      -0.1102
       Tot       0.1102
    Quadrupole Moments (Debye-Ang)
        XX     -61.1634     XY       1.6418     YY     -68.0646
        XZ       0.0000     YZ       0.0000     ZZ     -78.8545
    Octopole Moments (Debye-Ang^2)
       XXX       0.0000    XXY      -0.0000    XYY      -0.0000
       YYY      -0.0000    XXZ       1.4439    XYZ      -2.3628
       YYZ      -1.4684    XZZ       0.0000    YZZ      -0.0000
       ZZZ       1.8358
    Hexadecapole Moments (Debye-Ang^3)
      XXXX   -1890.7546   XXXY     -23.9326   XXYY    -422.0233
      XYYY      18.6239   YYYY    -562.4975   XXXZ       0.0000
      XXYZ       0.0000   XYYZ       0.0000   YYYZ       0.0000
      XXZZ    -427.2639   XYZZ      -7.9838   YYZZ    -126.1174
      XZZZ       0.0000   YZZZ      -0.0000   ZZZZ    -108.0341
 -----------------------------------------------------------------
Archival summary:
1\1\nid01044\OPT\ProcedureUnspecified\BasisUnspecified\286\FriSep218:44:352016FriSep218:44:352016\0\\#,OPT,ProcedureUnspecified,BasisUnspecified,\\0,1\S\C,1,1.73517\H,2,1.08136,1,119.836\C,2,1.36966,1,111.608,3,179.965,0\H,4,1.08398,2,123.382,1,-179.907,0\C,4,1.42487,2,112.835,1,0.361645,0\H,6,1.08439,4,123.493,2,179.216,0\C,6,1.38024,4,113.59,2,-0.0290995,0\C,8,1.45242,6,129.044,4,-179.895,0\C,9,1.38024,8,129.044,6,-170,0\H,10,1.08439,9,122.912,8,0.854876,0\C,10,1.42487,9,113.59,8,-179.895,0\H,12,1.08398,10,123.783,9,-179.759,0\C,12,1.36966,10,112.835,9,-0.0290995,0\H,14,1.08136,12,128.556,10,-179.677,0\S,14,1.73517,12,111.608,10,0.361645,0\\\@

 Total job time:  38.53s(wall), 42.78s(cpu) 
 Fri Sep  2 18:44:35 2016

        *************************************************************
        *                                                           *
        *  Thank you very much for using Q-Chem.  Have a nice day.  *
        *                                                           *
        *************************************************************


0 sent ACK to 0 
now end server 0 ... 
