srun -N 1 --ntasks-per-node 16 --nodelist nid01043 /global/project/projectdirs/jcesr/qchem/qc44/cnl_qc441/dist/exe/qcprog.cori.exe .pt_dft_-170.0.in.52373.qcin.1 /dev/shm/eg_qchem/qchem52373/
Process 0 of 16 is on nid01043 - thread support 0
Process 1 of 16 is on nid01043 - thread support 0
Process 2 of 16 is on nid01043 - thread support 0
Process 3 of 16 is on nid01043 - thread support 0
Process 4 of 16 is on nid01043 - thread support 0
Process 5 of 16 is on nid01043 - thread support 0
Process 6 of 16 is on nid01043 - thread support 0
Process 15 of 16 is on nid01043 - thread support 0
initial socket setup ...start
initial socket setup ...done 
now start server 0 ... 
nid01043 10.128.4
Q-Chem Developer Version! Running on 10.128.4.*
                  Welcome to Q-Chem
     A Quantum Leap Into The Future Of Chemistry


 Q-Chem 4.4, Q-Chem, Inc., Pleasanton, CA (2016)

 Y. Shao,  Z. Gan,  E. Epifanovsky,  A. T. B. Gilbert,  M. Wormit,  
 J. Kussmann,  A. W. Lange,  A. Behn,  J. Deng,  X. Feng,  D. Ghosh,  
 M. Goldey,  P. R. Horn,  L. D. Jacobson,  I. Kaliman,  F.Rob,  
 R. Z. Khaliullin,  T. Kus,  A. Landau,  J. Liu,  E. I. Proynov,  Y. M. Rhee,  
 R. M. Richard,  M. A. Rohrdanz,  R. P. Steele,  E. J. Sundstrom,  
 H. L. Woodcock III,  P. M. Zimmerman,  D. Zuev,  B. Albrecht,  E. Alguire,  
 B. Austin,  S. A. Baeppler,  G. J. O. Beran,  Y. A. Bernard,  E. Berquist,  
 K. Brandhorst,  K. B. Bravaya,  S. T. Brown,  D. Casanova,  C.-M. Chang,  
 Y. Chen,  S. H. Chien,  K. D. Closser,  M. P. Coons,  D. L. Crittenden,  
 S. Dasgupta,  M. Diedenhofen,  R. A. DiStasio Jr.,  H. Do,  A. D. Dutoi,  
 R. G. Edgar,  P.-T. Fang,  S. Fatehi,  Q. Feng,  L. Fusti-Molnar,  
 A. Ghysels,  A. Golubeva-Zadorozhnaya,  J. Gomes,  A. Gunina,  
 M. W. D. Hanson-Heine,  P. H. P. Harbach,  A. W. Hauser,  E. G. Hohenstein,  
 Z. C. Holden,  K. Hui,  T.-C. Jagau,  H. Ji,  B. Kaduk,  K. Khistyaev,  
 Jaehoon Kim,  Jihan Kim,  R. A. King,  P. Klunzinger,  D. Kosenkov,  
 T. Kowalczyk,  C. M. Krauter,  A. Kunitsa,  K. U. Lao,  A. Laurent,  
 K. V. Lawler,  D. Lefrancois,  S. Lehtola,  S. V. Levchenko,  C. Y. Lin,  
 Y.-S. Lin,  F. Liu,  E. Livshits,  R. C. Lochan,  A. Luenser,  P. Manohar,  
 S. F. Manzer,  S.-P. Mao,  Y. Mao,  N. Mardirossian,  A. V. Marenich,  
 L. A. Martinez-Martinez,  S. A. Maurer,  N. J. Mayhall,  J.-M. Mewes,  
 A. F. Morrison,  K. Nanda,  C. M. Oana,  R. Olivares-Amaya,  D. P. O'Neill,  
 J. A. Parkhill,  T. M. Perrine,  R. Peverati,  P. A. Pieniazek,  F. Plasser,  
 A. Prociuk,  D. R. Rehn,  E. Rosta,  N. J. Russ,  N. Sergueev,  
 S. M. Sharada,  S. Sharma,  D. W. Small,  A. Sodt,  T. Stauch,  T. Stein,  
 D. Stuck,  Y.-C. Su,  A. J. W. Thom,  T. Tsuchimochi,  L. Vogt,  O. Vydrov,  
 T. Wang,  M. A. Watson,  J. Wenzel,  A. White,  C. F. Williams,  
 V. Vanovschi,  S. Yeganeh,  S. R. Yost,  Z.-Q. You,  I. Y. Zhang,  X. Zhang,  
 Y. Zhao,  B. R. Brooks,  G. K. L. Chan,  D. M. Chipman,  C. J. Cramer,  
 W. A. Goddard III,  M. S. Gordon,  W. J. Hehre,  A. Klamt,  
 H. F. Schaefer III,  M. W. Schmidt,  C. D. Sherrill,  D. G. Truhlar,  
 A. Warshel,  X. Xu,  A. Aspuru-Guzik,  R. Baer,  A. T. Bell,  N. A. Besley,  
 J.-D. Chai,  A. Dreuw,  B. D. Dunietz,  T. R. Furlani,  S. R. Gwaltney,  
 C.-P. Hsu,  Y. Jung,  J. Kong,  D. S. Lambrecht,  W. Liang,  C. Ochsenfeld,  
 V. A. Rassolov,  L. V. Slipchenko,  J. E. Subotnik,  T. Van Voorhis,  
 J. M. Herbert,  A. I. Krylov,  P. M. W. Gill,  M. Head-Gordon

 Contributors to earlier versions of Q-Chem not listed above: 
 R. D. Adamson,  J. Baker,  E. F. C. Byrd,  A. K. Chakraborty,  C.-L. Cheng,  
 H. Dachsel,  R. J. Doerksen,  G. Hawkins,  A. Heyden,  S. Hirata,  
 G. Kedziora,  F. J. Keil,  C. Kelley,  P. P. Korambath,  W. Kurlancheek,  
 A. M. Lee,  M. S. Lee,  D. Liotard,  I. Lotan,  P. E. Maslen,  N. Nair,  
 D. Neuhauser,  R. Olson,  B. Peters,  J. Ritchie,  N. E. Schultz,  
 N. Shenvi,  A. C. Simmonett,  K. S. Thanthiriwatte,  Q. Wu,  W. Zhang

 Please cite Q-Chem as follows:
 Y. Shao et al., Mol. Phys. 113, 184-215 (2015)
 DOI: 10.1080/00268976.2014.952696

 Q-Chem 4.4.1 for Intel X86 EM64T Linux

 Parts of Q-Chem use Armadillo 5.200.1 (Boston Tea Smuggler).
 http://arma.sourceforge.net/

 Q-Chem begins on Fri Sep  2 18:24:01 2016  

Host: nid01043
0

     Scratch files written to /dev/shm/eg_qchem/qchem52373.0//
 Parallel job on  16  processors

Checking the input file for inconsistencies... 	...done.

--------------------------------------------------------------
User input:
--------------------------------------------------------------
$comment
<SCF Fix Strategy>{
    "current_method_id": 0, 
    "methods": [
        "increase_iter", 
        "rca_diis", 
        "gwh", 
        "gdm", 
        "rca", 
        "core+rca", 
        "fon"
    ], 
    "version": 2.0
}</SCF Fix Strategy>
$end


$molecule
 0  1
 S           1.82267924       -1.19997629        0.28714109
 C           3.20006180       -0.17260711        0.06528466
 C           2.82980603        1.10216298       -0.25610036
 C           1.41909100        1.26345446       -0.34254814
 C           0.71738150        0.10901545       -0.08456145
 H           0.93627498        2.19419272       -0.61095402
 C          -0.71741859       -0.10899254       -0.08455524
 S          -1.81064520        1.12054900       -0.68985535
 C          -1.42822116       -1.20358189        0.34939928
 C          -3.19323931        0.12748117       -0.36714764
 C          -2.83511888       -1.06741562        0.18907894
 H          -3.54896533       -1.83165080        0.46671480
 H           4.19429620       -0.57452886        0.18632814
 H           3.53860725        1.89960515       -0.43610218
 H          -4.18127904        0.48863065       -0.60806916
 H          -0.95216073       -2.08985584        0.74853799
$end


$rem
         jobtype = opt
        exchange = b3lyp
           basis = 6-31++g**
  max_scf_cycles = 200
      mem_static = 100
       mem_total = 1500
   scf_algorithm = diis
       scf_guess = sad
$end


$opt
CONSTRAINT
tors 4 5 7 9 -170.0
ENDCONSTRAINT
$end

--------------------------------------------------------------
 Atom   8: ( -1.8522239446,  1.2059716655, -0.0913997238)
         ->( -1.8522241053,  1.2059716999, -0.0913998380)
 Atom  10: ( -3.2050372348,  0.1247949986, -0.0380736420)
         ->( -3.2050372313,  0.1247948506, -0.0380735708)
 Atom  11: ( -2.8050087705, -1.1751951729,  0.0861011189)
         ->( -2.8050086275, -1.1751952077,  0.0861013589)
 Atom   9: ( -1.3901399302, -1.3174113785,  0.1251622847)
         ->( -1.3901397672, -1.3174113718,  0.1251619132)
 Atom   7: ( -0.7151949075, -0.1226417311,  0.0321172950)
         ->( -0.7151948569, -0.1226415826,  0.0321172931)
 Atom  16: ( -0.8840623130, -2.2716302907,  0.1942887635)
         ->( -0.8840620468, -2.2716302420,  0.1942880500)
 Atom  14: (  3.4948732272,  2.0071420347,  0.1377264526)
         ->(  3.4948734609,  2.0071419334,  0.1377260340)
 Atom  15: ( -4.2083718306,  0.5172188017, -0.1014604022)
         ->( -4.2083719190,  0.5172184697, -0.1014602164)
 ----------------------------------------------------------------
             Standard Nuclear Orientation (Angstroms)
    I     Atom           X                Y                Z
 ----------------------------------------------------------------
    1      S       1.8522241053    -1.2059716999    -0.0913998380
    2      C       3.2050372313    -0.1247948506    -0.0380735708
    3      C       2.8050086275     1.1751952077     0.0861013589
    4      C       1.3901397672     1.3174113718     0.1251619132
    5      C       0.7151948569     0.1226415826     0.0321172931
    6      H       0.8840620468     2.2716302420     0.1942880500
    7      C      -0.7151948569    -0.1226415826     0.0321172931
    8      S      -1.8522241053     1.2059716999    -0.0913998380
    9      C      -1.3901397672    -1.3174113718     0.1251619132
   10      C      -3.2050372313     0.1247948506    -0.0380735708
   11      C      -2.8050086275    -1.1751952077     0.0861013589
   12      H      -3.4948734609    -2.0071419334     0.1377260340
   13      H       4.2083719190    -0.5172184697    -0.1014602164
   14      H       3.4948734609     2.0071419334     0.1377260340
   15      H      -4.2083719190     0.5172184697    -0.1014602164
   16      H      -0.8840620468    -2.2716302420     0.1942880500
 ----------------------------------------------------------------
 Molecular Point Group                 C2    NOp =  2
 Largest Abelian Subgroup              C2    NOp =  2
 Nuclear Repulsion Energy =   630.3748301535 hartrees
 There are       43 alpha and       43 beta electrons
 Requested basis set is 6-31++G(d,p)
 There are 76 shells and 234 basis functions

 Total QAlloc Memory Limit   1500 MB
 Mega-Array Size        98 MB
 MEM_STATIC part       100 MB
 A cutoff of  1.0D-11 yielded   2491 shell pairs
 There are     24623 function pairs
 
 -------------------------------------------------------
 OpenMP Integral Computing Module                       
 Release: version 1.0, May 2013, Q-Chem Inc. Pittsburgh 
 -------------------------------------------------------
 Integral Job Info:
 Integral job number is                      11
 Integral operator is                         1
 short-range coefficients                     0
 long-range coefficients              100000000
 Omega coefficients                           0
 if combine SR and LR in K                    0
 Integral screening is                        0
 Integral computing path is                   2
 max size of driver memory is            800000
 size of driver memory is                593474
 size of scratch memory is             15166112
 max col of scratch BK array               1296
 max len of scratch array in speh3          155
 max len of scratch index in speh4           18
 max int batch size is                      520
 min int batch size is                       52
 fixed nKL is                                52
 max L of basis functions is                  2
 order of int derivative is                   0
 number of shells is                         76
 number of basis is                         234
 number of cartesian basis is               234
 number of contracted shell pairs          2491
 number of primitive shell pairs           8076
 maxK2 (contraction) of shell pair           36
 max number of K2 of shell pair               1
 max number of CS2 of shell pair            260
 max number of PS2 of shell pair           1548
 mem total for path MDJ                   51606
 -------------------------------------------------------
 Smallest overlap matrix eigenvalue = 8.46E-07

 Q-Chem warning in module /project/projectdirs/jcesr/qchem/qc44/cnl_qc441/compile/cori/qc_src/stvman/mkSTV.C, line 257:

 Overlap eigenvalue is smaller than square root of threshold

 Linear dependence detected in AO basis
 Number of orthogonalized atomic orbitals = 233
 Maximum deviation from orthogonality = 3.246E-11

 Scale SEOQF with 1.000000e-01/1.000000e-01/1.000000e-01

 Standard Electronic Orientation quadrupole field applied
 Nucleus-field energy     =     0.0000000222 hartrees
 Guess from superposition of atomic densities
 Warning:  Energy on first SCF cycle will be non-variational
 A restricted hybrid HF-DFT SCF calculation will be
 performed using Pulay DIIS extrapolation
 Exchange:     0.2000 Hartree-Fock + 0.0800 Slater + 0.7200 B88
 Correlation:  0.1900 VWN1RPA + 0.8100 LYP
 Using SG-1 standard quadrature grid
 SCF converges when DIIS error is below 1.0E-08
 ---------------------------------------
  Cycle       Energy         DIIS Error
 ---------------------------------------
    1   -1107.2322633951      4.46E-02
    2   -1104.8507139169      8.76E-03
    3   -1236.2645312931      3.58E-01
    4   -1239.8302538662      3.66E-01
    5   -1095.8552904137      1.76E-02
    6   -1097.3685452809      2.24E-02
    7   -1097.8715117006      2.10E-02
    8   -1097.7233001782      2.10E-02
    9   -1097.9431467142      2.10E-02
   10   -1098.2207741501      2.13E-02
   11   -1097.8915706637      1.94E-02
   12   -1097.2261877503      1.57E-02
   13   -1097.3057701856      1.32E-02
   14   -1098.9903311972      1.35E-02
   15   -1128.8687345664      2.78E-02
   16   -1125.9395028487      2.39E-02
   17   -1120.2791216458      1.96E-02
   18   -1103.2728365682      1.24E-02
   19   -1101.5519235906      1.14E-02
   20   -1101.4454674789      1.15E-02
   21   -1101.4448013280      1.15E-02
   22   -1104.7834761159      2.14E-03
   23   -1104.7939558942      2.49E-03
   24   -1104.8363264417      7.24E-04
   25   -1104.8389507618      4.15E-04
   26   -1104.8402235716      9.96E-05
   27   -1104.8402949737      2.68E-05
   28   -1104.8403003977      7.05E-06
   29   -1104.8403003689      3.32E-06
   30   -1104.8403008823      7.17E-07
   31   -1104.8403012623      2.15E-07
   32   -1104.8403008930      3.43E-08
   33   -1104.8403004667      9.34E-09 Convergence criterion met
 ---------------------------------------
 SCF time:  CPU 14.59 s  wall 12.36 s
 SCF   energy in the final basis set = -1104.8403004667
 Total energy in the final basis set = -1104.8403004667
 
 --------------------------------------------------------------
             Orbital Energies (a.u.) and Symmetries
 --------------------------------------------------------------
 
 Alpha MOs, Restricted
 -- Occupied --                  
-88.919 -88.919 -10.239 -10.238 -10.224 -10.224 -10.204 -10.204
  1 A     1 B     2 A     2 B     3 B     3 A     4 A     4 B                  
-10.202 -10.202  -7.979  -7.979  -5.943  -5.943  -5.939  -5.939
  5 B     5 A     6 A     6 B     7 A     7 B     8 B     8 A                  
 -5.936  -5.936  -0.902  -0.880  -0.773  -0.751  -0.738  -0.707
  9 B     9 A    10 A    10 B    11 A    11 B    12 A    12 B                  
 -0.605  -0.582  -0.551  -0.535  -0.528  -0.479  -0.421  -0.419
 13 A    13 B    14 A    14 B    15 A    15 B    16 B    16 A                  
 -0.409  -0.405  -0.402  -0.379  -0.375  -0.358  -0.343  -0.284
 17 A    17 B    18 A    19 A    18 B    19 B    20 A    21 A                  
 -0.265  -0.258  -0.212
 20 B    22 A    21 B                                                          
 -- Virtual --                   
 -0.059  -0.006  -0.004  -0.000   0.008   0.009   0.017   0.022
 23 A    24 A    22 B    23 B    25 A    24 B    25 B    26 A                  
  0.032   0.037   0.038   0.044   0.051   0.056   0.062   0.065
 27 A    28 A    26 B    29 A    30 A    27 B    28 B    29 B                  
  0.075   0.083   0.086   0.096   0.097   0.102   0.106   0.111
 30 B    31 B    31 A    32 B    32 A    33 A    34 A    35 A                  
  0.118   0.124   0.125   0.132   0.132   0.143   0.144   0.144
 33 B    36 A    34 B    35 B    37 A    36 B    37 B    38 A                  
  0.148   0.153   0.163   0.165   0.169   0.172   0.184   0.190
 39 A    38 B    40 A    39 B    41 A    40 B    42 A    41 B                  
  0.191   0.201   0.208   0.210   0.220   0.220   0.226   0.227
 43 A    42 B    43 B    44 A    44 B    45 A    45 B    46 A                  
  0.251   0.253   0.258   0.270   0.282   0.285   0.287   0.313
 46 B    47 A    47 B    48 A    48 B    49 A    49 B    50 A                  
  0.323   0.324   0.350   0.350   0.354   0.374   0.396   0.408
 50 B    51 A    52 A    53 A    51 B    52 B    54 A    53 B                  
  0.456   0.469   0.508   0.513   0.547   0.557   0.571   0.595
 54 B    55 A    55 B    56 A    57 A    56 B    57 B    58 A                  
  0.607   0.621   0.649   0.650   0.656   0.657   0.665   0.692
 59 A    58 B    60 A    59 B    60 B    61 A    61 B    62 A                  
  0.703   0.716   0.726   0.730   0.742   0.743   0.779   0.788
 63 A    62 B    64 A    63 B    64 B    65 A    66 A    65 B                  
  0.818   0.819   0.825   0.847   0.868   0.921   0.938   0.949
 67 A    66 B    67 B    68 A    69 A    68 B    70 A    69 B                  
  0.952   0.952   0.962   0.970   0.984   0.994   0.997   1.020
 70 B    71 A    72 A    71 B    72 B    73 B    73 A    74 B                  
  1.029   1.044   1.069   1.105   1.111   1.121   1.148   1.167
 74 A    75 A    76 A    77 A    75 B    76 B    77 B    78 A                  
  1.174   1.187   1.217   1.261   1.268   1.321   1.341   1.344
 78 B    79 A    80 A    79 B    81 A    80 B    82 A    81 B                  
  1.353   1.354   1.373   1.470   1.483   1.493   1.546   1.608
 83 A    82 B    84 A    85 A    83 B    84 B    85 B    86 A                  
  1.674   1.692   1.727   1.801   1.865   1.882   1.894   1.918
 87 A    86 B    88 A    89 A    90 A    87 B    88 B    91 A                  
  1.925   1.940   1.957   2.010   2.059   2.073   2.077   2.125
 89 B    92 A    90 B    93 A    91 B    94 A    92 B    93 B                  
  2.176   2.183   2.184   2.220   2.245   2.260   2.344   2.363
 95 A    94 B    96 A    97 A    95 B    96 B    98 A    97 B                  
  2.367   2.420   2.456   2.459   2.473   2.495   2.513   2.530
 99 A    98 B    99 B   100 A   101 A   100 B   102 A   103 A                  
  2.538   2.565   2.590   2.615   2.676   2.696   2.723   2.758
101 B   102 B   104 A   103 B   105 A   106 A   104 B   105 B                  
  2.870   2.879   2.939   2.944   3.152   3.215   3.273   3.280
107 A   106 B   108 A   107 B   108 B   109 A   109 B   110 A                  
  3.404   3.434   3.729   3.751   3.974   3.985   4.237   4.297
111 A   110 B   112 A   111 B   112 B   113 A   114 A   113 B                  
  4.312   4.321   4.410   4.538   4.663   4.721
115 A   114 B   116 A   115 B   117 A   116 B                                  
 
 Beta MOs, Restricted
 -- Occupied --                  
-88.919 -88.919 -10.239 -10.238 -10.224 -10.224 -10.204 -10.204
  1 A     1 B     2 A     2 B     3 B     3 A     4 A     4 B                  
-10.202 -10.202  -7.979  -7.979  -5.943  -5.943  -5.939  -5.939
  5 B     5 A     6 A     6 B     7 A     7 B     8 B     8 A                  
 -5.936  -5.936  -0.902  -0.880  -0.773  -0.751  -0.738  -0.707
  9 B     9 A    10 A    10 B    11 A    11 B    12 A    12 B                  
 -0.605  -0.582  -0.551  -0.535  -0.528  -0.479  -0.421  -0.419
 13 A    13 B    14 A    14 B    15 A    15 B    16 B    16 A                  
 -0.409  -0.405  -0.402  -0.379  -0.375  -0.358  -0.343  -0.284
 17 A    17 B    18 A    19 A    18 B    19 B    20 A    21 A                  
 -0.265  -0.258  -0.212
 20 B    22 A    21 B                                                          
 -- Virtual --                   
 -0.059  -0.006  -0.004  -0.000   0.008   0.009   0.017   0.022
 23 A    24 A    22 B    23 B    25 A    24 B    25 B    26 A                  
  0.032   0.037   0.038   0.044   0.051   0.056   0.062   0.065
 27 A    28 A    26 B    29 A    30 A    27 B    28 B    29 B                  
  0.075   0.083   0.086   0.096   0.097   0.102   0.106   0.111
 30 B    31 B    31 A    32 B    32 A    33 A    34 A    35 A                  
  0.118   0.124   0.125   0.132   0.132   0.143   0.144   0.144
 33 B    36 A    34 B    35 B    37 A    36 B    37 B    38 A                  
  0.148   0.153   0.163   0.165   0.169   0.172   0.184   0.190
 39 A    38 B    40 A    39 B    41 A    40 B    42 A    41 B                  
  0.191   0.201   0.208   0.210   0.220   0.220   0.226   0.227
 43 A    42 B    43 B    44 A    44 B    45 A    45 B    46 A                  
  0.251   0.253   0.258   0.270   0.282   0.285   0.287   0.313
 46 B    47 A    47 B    48 A    48 B    49 A    49 B    50 A                  
  0.323   0.324   0.350   0.350   0.354   0.374   0.396   0.408
 50 B    51 A    52 A    53 A    51 B    52 B    54 A    53 B                  
  0.456   0.469   0.508   0.513   0.547   0.557   0.571   0.595
 54 B    55 A    55 B    56 A    57 A    56 B    57 B    58 A                  
  0.607   0.621   0.649   0.650   0.656   0.657   0.665   0.692
 59 A    58 B    60 A    59 B    60 B    61 A    61 B    62 A                  
  0.703   0.716   0.726   0.730   0.742   0.743   0.779   0.788
 63 A    62 B    64 A    63 B    64 B    65 A    66 A    65 B                  
  0.818   0.819   0.825   0.847   0.868   0.921   0.938   0.949
 67 A    66 B    67 B    68 A    69 A    68 B    70 A    69 B                  
  0.952   0.952   0.962   0.970   0.984   0.994   0.997   1.020
 70 B    71 A    72 A    71 B    72 B    73 B    73 A    74 B                  
  1.029   1.044   1.069   1.105   1.111   1.121   1.148   1.167
 74 A    75 A    76 A    77 A    75 B    76 B    77 B    78 A                  
  1.174   1.187   1.217   1.261   1.268   1.321   1.341   1.344
 78 B    79 A    80 A    79 B    81 A    80 B    82 A    81 B                  
  1.353   1.354   1.373   1.470   1.483   1.493   1.546   1.608
 83 A    82 B    84 A    85 A    83 B    84 B    85 B    86 A                  
  1.674   1.692   1.727   1.801   1.865   1.882   1.894   1.918
 87 A    86 B    88 A    89 A    90 A    87 B    88 B    91 A                  
  1.925   1.940   1.957   2.010   2.059   2.073   2.077   2.125
 89 B    92 A    90 B    93 A    91 B    94 A    92 B    93 B                  
  2.176   2.183   2.184   2.220   2.245   2.260   2.344   2.363
 95 A    94 B    96 A    97 A    95 B    96 B    98 A    97 B                  
  2.367   2.420   2.456   2.459   2.473   2.495   2.513   2.530
 99 A    98 B    99 B   100 A   101 A   100 B   102 A   103 A                  
  2.538   2.565   2.590   2.615   2.676   2.696   2.723   2.758
101 B   102 B   104 A   103 B   105 A   106 A   104 B   105 B                  
  2.870   2.879   2.939   2.944   3.152   3.215   3.273   3.280
107 A   106 B   108 A   107 B   108 B   109 A   109 B   110 A                  
  3.404   3.434   3.729   3.751   3.974   3.985   4.237   4.297
111 A   110 B   112 A   111 B   112 B   113 A   114 A   113 B                  
  4.312   4.321   4.410   4.538   4.663   4.721
115 A   114 B   116 A   115 B   117 A   116 B                                  
 --------------------------------------------------------------
 
          Ground-State Mulliken Net Atomic Charges

     Atom                 Charge (a.u.)
  ----------------------------------------
      1 S                    -0.136508
      2 C                     0.017551
      3 C                    -0.358928
      4 C                     0.413811
      5 C                    -0.372622
      6 H                     0.116066
      7 C                    -0.372622
      8 S                    -0.136508
      9 C                     0.413811
     10 C                     0.017551
     11 C                    -0.358928
     12 H                     0.121083
     13 H                     0.199547
     14 H                     0.121083
     15 H                     0.199547
     16 H                     0.116066
  ----------------------------------------
  Sum of atomic charges =     0.000000

 -----------------------------------------------------------------
                    Cartesian Multipole Moments
 -----------------------------------------------------------------
    Charge (ESU x 10^10)
                 0.0000
    Dipole Moment (Debye)
         X       0.0000      Y       0.0000      Z       0.0337
       Tot       0.0337
    Quadrupole Moments (Debye-Ang)
        XX     -61.2099     XY       1.6426     YY     -68.0632
        XZ      -0.0000     YZ       0.0000     ZZ     -78.7870
    Octopole Moments (Debye-Ang^2)
       XXX      -0.0000    XXY       0.0000    XYY       0.0000
       YYY       0.0000    XXZ      -2.2905    XYZ       2.1027
       YYZ       1.3325    XZZ      -0.0000    YZZ       0.0000
       ZZZ      -0.9236
    Hexadecapole Moments (Debye-Ang^3)
      XXXX   -1883.9847   XXXY     -23.2384   XXYY    -420.6686
      XYYY      18.8376   YYYY    -561.1869   XXXZ       0.0000
      XXYZ       0.0000   XYYZ       0.0000   YYYZ       0.0000
      XXZZ    -424.8359   XYZZ      -7.8396   YYZZ    -125.8825
      XZZZ      -0.0000   YZZZ       0.0000   ZZZZ    -106.9497
 -----------------------------------------------------------------
 Calculating analytic gradient of the SCF energy
 Gradient of SCF Energy
            1           2           3           4           5           6
    1   0.0001033  -0.0008448  -0.0005933  -0.0002799   0.0019554   0.0002833
    2   0.0016922   0.0024284  -0.0029045  -0.0024577   0.0032283  -0.0014373
    3   0.0014331  -0.0010111   0.0009581   0.0015547  -0.0011160  -0.0012364
            7           8           9          10          11          12
    1  -0.0019554  -0.0001033   0.0002799   0.0008448   0.0005933   0.0008876
    2  -0.0032283  -0.0016922   0.0024577  -0.0024284   0.0029045   0.0011708
    3  -0.0011160   0.0014331   0.0015547  -0.0010111   0.0009581  -0.0001142
           13          14          15          16
    1  -0.0014882  -0.0008876   0.0014882  -0.0002833
    2   0.0005109  -0.0011708  -0.0005109   0.0014373
    3  -0.0004682  -0.0001142  -0.0004682  -0.0012364
 Max gradient component =       3.228E-03
 RMS gradient           =       1.512E-03
 Gradient time:  CPU 1.91 s  wall 1.92 s
 Geometry Optimization Parameters
   NAtoms,    NIC,     NZ,  NCons,   NDum,   NFix, NCnnct, MaxDiis
       16     111       0       1       0       0       0       0


** CONSTRAINED OPTIMIZATION IN DELOCALIZED INTERNAL COORDINATES **
   Searching for a Minimum

   Optimization Cycle:   1

                       Coordinates (Angstroms)
     ATOM                X               Y               Z
      1  S         1.8522241053   -1.2059716999   -0.0913998380
      2  C         3.2050372313   -0.1247948506   -0.0380735708
      3  C         2.8050086275    1.1751952077    0.0861013589
      4  C         1.3901397672    1.3174113718    0.1251619132
      5  C         0.7151948569    0.1226415826    0.0321172931
      6  H         0.8840620468    2.2716302420    0.1942880500
      7  C        -0.7151948569   -0.1226415826    0.0321172931
      8  S        -1.8522241053    1.2059716999   -0.0913998380
      9  C        -1.3901397672   -1.3174113718    0.1251619132
     10  C        -3.2050372313    0.1247948506   -0.0380735708
     11  C        -2.8050086275   -1.1751952077    0.0861013589
     12  H        -3.4948734609   -2.0071419334    0.1377260340
     13  H         4.2083719190   -0.5172184697   -0.1014602164
     14  H         3.4948734609    2.0071419334    0.1377260340
     15  H        -4.2083719190    0.5172184697   -0.1014602164
     16  H        -0.8840620468   -2.2716302420    0.1942880500
   Point Group: c2    Number of degrees of freedom:    22


   Energy is  -1104.840300467

              Constraints and their Current Values
                                        Value     Constraint
   Dihedral:        4   5   7   9     -170.000     -170.000

 Attempting to Generate Delocalized Internal Coordinates

 21 Hessian modes will be used to form the next step
  Hessian Eigenvalues:
     0.045000    0.045000    0.045000    0.045002    0.045004    0.045013
     0.159937    0.159990    0.160000    0.221280    0.237833    0.249997
     0.296078    0.314672    0.357149    0.357543    0.360899    0.380793
     0.408411    0.470750    0.505998

 Minimum Search - Taking Simple RFO Step
 Searching for Lamda that Minimizes Along All modes
 Value Taken    Lamda =  -0.00046411
 Step Taken.  Stepsize is  0.071060

                             Maximum     Tolerance    Cnvgd?
         Gradient           0.005868      0.000300      NO
         Displacement       0.053972      0.001200      NO
         Energy change     *********      0.000001      NO


 New Cartesian Coordinates Obtained by Inverse Iteration

 Displacement from previous Coordinates is:  0.116030
 ----------------------------------------------------------------
             Standard Nuclear Orientation (Angstroms)
    I     Atom           X                Y                Z
 ----------------------------------------------------------------
    1      S       1.8572539145    -1.2057440453    -0.1070084768
    2      C       3.2129866134    -0.1254187568    -0.0282452998
    3      C       2.8122148592     1.1795952214     0.0835104548
    4      C       1.3941105525     1.3216905588     0.1140511844
    5      C       0.7164120474     0.1227470077     0.0206767100
    6      H       0.8896424393     2.2785920389     0.1914478249
    7      C      -0.7164120474    -0.1227470077     0.0206767100
    8      S      -1.8572539145     1.2057440453    -0.1070084768
    9      C      -1.3941105525    -1.3216905588     0.1140511844
   10      C      -3.2129866134     0.1254187568    -0.0282452998
   11      C      -2.8122148592    -1.1795952214     0.0835104548
   12      H      -3.5032537992    -2.0127630524     0.1443402562
   13      H       4.2188545259    -0.5200035619    -0.0743116294
   14      H       3.5032537992     2.0127630524     0.1443402562
   15      H      -4.2188545259     0.5200035619    -0.0743116294
   16      H      -0.8896424393    -2.2785920389     0.1914478249
 ----------------------------------------------------------------
 Molecular Point Group                 C2    NOp =  2
 Largest Abelian Subgroup              C2    NOp =  2
 Nuclear Repulsion Energy =   628.9424081414 hartrees
 There are       43 alpha and       43 beta electrons
 Applying Cartesian multipole field
    Component          Value
    ---------          -----
     (2,0,0)        1.00000E-11
     (0,2,0)        2.00000E-11
     (0,0,2)       -3.00000E-11
 Nucleus-field energy     =     0.0000000223 hartrees
 Requested basis set is 6-31++G(d,p)
 There are 76 shells and 234 basis functions
 A cutoff of  1.0D-11 yielded   2491 shell pairs
 There are     24623 function pairs
 Smallest overlap matrix eigenvalue = 8.65E-07

 Q-Chem warning in module /project/projectdirs/jcesr/qchem/qc44/cnl_qc441/compile/cori/qc_src/stvman/mkSTV.C, line 257:

 Overlap eigenvalue is smaller than square root of threshold

 Linear dependence detected in AO basis
 Number of orthogonalized atomic orbitals = 233
 Maximum deviation from orthogonality = 5.157E-11
 Guess MOs from SCF MO coefficient file
 Reading MOs from coefficient file
 Reading MOs from coefficient file
 A restricted hybrid HF-DFT SCF calculation will be
 performed using Pulay DIIS extrapolation
 Exchange:     0.2000 Hartree-Fock + 0.0800 Slater + 0.7200 B88
 Correlation:  0.1900 VWN1RPA + 0.8100 LYP
 Using SG-1 standard quadrature grid
 SCF converges when DIIS error is below 1.0E-08
 Geometry optimization detected.  Setting ReadMinima to 0
 Setting SaveMinima to 0
 ---------------------------------------
  Cycle       Energy         DIIS Error
 ---------------------------------------
    1   -1104.8156090942      4.64E-04
    2   -1104.8404615454      9.68E-05
    3   -1104.8403192239      1.70E-04
    4   -1104.8405395529      3.38E-05
    5   -1104.8405473908      6.64E-06
    6   -1104.8405476629      3.22E-06
    7   -1104.8405477485      8.99E-07
    8   -1104.8405477532      3.87E-07
    9   -1104.8405477535      5.24E-08
   10   -1104.8405477554      2.61E-08
   11   -1104.8405477542      3.44E-09 Convergence criterion met
 ---------------------------------------
 SCF time:  CPU 5.83 s  wall 5.14 s
 SCF   energy in the final basis set = -1104.8405477542
 Total energy in the final basis set = -1104.8405477542
 
 --------------------------------------------------------------
             Orbital Energies (a.u.) and Symmetries
 --------------------------------------------------------------
 
 Alpha MOs, Restricted
 -- Occupied --                  
-88.920 -88.920 -10.240 -10.240 -10.225 -10.225 -10.205 -10.205
  1 A     1 B     2 A     2 B     3 B     3 A     4 A     4 B                  
-10.204 -10.204  -7.979  -7.979  -5.943  -5.943  -5.940  -5.940
  5 B     5 A     6 A     6 B     7 A     7 B     8 B     8 A                  
 -5.936  -5.936  -0.900  -0.878  -0.772  -0.750  -0.737  -0.706
  9 B     9 A    10 A    10 B    11 A    11 B    12 A    12 B                  
 -0.604  -0.581  -0.551  -0.535  -0.527  -0.478  -0.420  -0.419
 13 A    13 B    14 A    14 B    15 A    15 B    16 B    16 A                  
 -0.408  -0.405  -0.402  -0.379  -0.374  -0.358  -0.343  -0.284
 17 A    17 B    18 A    19 A    18 B    19 B    20 A    21 A                  
 -0.265  -0.258  -0.212
 20 B    22 A    21 B                                                          
 -- Virtual --                   
 -0.059  -0.006  -0.004  -0.001   0.008   0.009   0.017   0.022
 23 A    24 A    22 B    23 B    25 A    24 B    25 B    26 A                  
  0.032   0.036   0.037   0.044   0.051   0.056   0.062   0.065
 27 A    28 A    26 B    29 A    30 A    27 B    28 B    29 B                  
  0.075   0.083   0.085   0.095   0.097   0.102   0.106   0.111
 30 B    31 B    31 A    32 B    32 A    33 A    34 A    35 A                  
  0.117   0.124   0.125   0.132   0.132   0.142   0.144   0.144
 33 B    36 A    34 B    35 B    37 A    36 B    38 A    37 B                  
  0.148   0.153   0.163   0.164   0.169   0.171   0.184   0.190
 39 A    38 B    40 A    39 B    41 A    40 B    42 A    41 B                  
  0.191   0.201   0.208   0.209   0.219   0.220   0.226   0.226
 43 A    42 B    43 B    44 A    44 B    45 A    46 A    45 B                  
  0.250   0.253   0.256   0.269   0.282   0.284   0.286   0.311
 46 B    47 A    47 B    48 A    48 B    49 A    49 B    50 A                  
  0.321   0.322   0.348   0.349   0.353   0.373   0.394   0.406
 50 B    51 A    52 A    53 A    51 B    52 B    54 A    53 B                  
  0.454   0.468   0.508   0.513   0.545   0.555   0.569   0.592
 54 B    55 A    55 B    56 A    57 A    56 B    57 B    58 A                  
  0.606   0.621   0.648   0.650   0.656   0.657   0.665   0.690
 59 A    58 B    60 A    59 B    60 B    61 A    61 B    62 A                  
  0.702   0.716   0.725   0.728   0.742   0.744   0.777   0.786
 63 A    62 B    64 A    63 B    64 B    65 A    66 A    65 B                  
  0.817   0.819   0.823   0.847   0.866   0.920   0.938   0.948
 67 A    66 B    67 B    68 A    69 A    68 B    70 A    69 B                  
  0.951   0.953   0.960   0.969   0.983   0.994   0.997   1.018
 70 B    71 A    72 A    71 B    72 B    73 B    73 A    74 B                  
  1.027   1.042   1.069   1.104   1.110   1.119   1.147   1.165
 74 A    75 A    76 A    77 A    75 B    76 B    77 B    78 A                  
  1.173   1.184   1.217   1.258   1.267   1.323   1.341   1.342
 78 B    79 A    80 A    79 B    81 A    80 B    81 B    82 A                  
  1.349   1.354   1.372   1.468   1.480   1.492   1.542   1.604
 83 A    82 B    84 A    85 A    83 B    84 B    85 B    86 A                  
  1.672   1.691   1.726   1.799   1.863   1.878   1.890   1.913
 87 A    86 B    88 A    89 A    90 A    87 B    88 B    91 A                  
  1.923   1.935   1.952   2.007   2.053   2.068   2.076   2.121
 89 B    92 A    90 B    93 A    91 B    94 A    92 B    93 B                  
  2.172   2.180   2.180   2.216   2.243   2.255   2.339   2.361
 95 A    96 A    94 B    97 A    95 B    96 B    98 A    97 B                  
  2.365   2.418   2.451   2.457   2.468   2.491   2.509   2.525
 99 A    98 B    99 B   100 A   101 A   100 B   102 A   103 A                  
  2.537   2.560   2.585   2.611   2.671   2.690   2.717   2.753
101 B   102 B   104 A   103 B   105 A   106 A   104 B   105 B                  
  2.862   2.874   2.932   2.937   3.144   3.207   3.267   3.275
107 A   106 B   108 A   107 B   108 B   109 A   109 B   110 A                  
  3.399   3.428   3.720   3.742   3.973   3.984   4.235   4.297
111 A   110 B   112 A   111 B   112 B   113 A   114 A   113 B                  
  4.309   4.319   4.409   4.535   4.659   4.715
115 A   114 B   116 A   115 B   117 A   116 B                                  
 
 Beta MOs, Restricted
 -- Occupied --                  
-88.920 -88.920 -10.240 -10.240 -10.225 -10.225 -10.205 -10.205
  1 A     1 B     2 A     2 B     3 B     3 A     4 A     4 B                  
-10.204 -10.204  -7.979  -7.979  -5.943  -5.943  -5.940  -5.940
  5 B     5 A     6 A     6 B     7 A     7 B     8 B     8 A                  
 -5.936  -5.936  -0.900  -0.878  -0.772  -0.750  -0.737  -0.706
  9 B     9 A    10 A    10 B    11 A    11 B    12 A    12 B                  
 -0.604  -0.581  -0.551  -0.535  -0.527  -0.478  -0.420  -0.419
 13 A    13 B    14 A    14 B    15 A    15 B    16 B    16 A                  
 -0.408  -0.405  -0.402  -0.379  -0.374  -0.358  -0.343  -0.284
 17 A    17 B    18 A    19 A    18 B    19 B    20 A    21 A                  
 -0.265  -0.258  -0.212
 20 B    22 A    21 B                                                          
 -- Virtual --                   
 -0.059  -0.006  -0.004  -0.001   0.008   0.009   0.017   0.022
 23 A    24 A    22 B    23 B    25 A    24 B    25 B    26 A                  
  0.032   0.036   0.037   0.044   0.051   0.056   0.062   0.065
 27 A    28 A    26 B    29 A    30 A    27 B    28 B    29 B                  
  0.075   0.083   0.085   0.095   0.097   0.102   0.106   0.111
 30 B    31 B    31 A    32 B    32 A    33 A    34 A    35 A                  
  0.117   0.124   0.125   0.132   0.132   0.142   0.144   0.144
 33 B    36 A    34 B    35 B    37 A    36 B    38 A    37 B                  
  0.148   0.153   0.163   0.164   0.169   0.171   0.184   0.190
 39 A    38 B    40 A    39 B    41 A    40 B    42 A    41 B                  
  0.191   0.201   0.208   0.209   0.219   0.220   0.226   0.226
 43 A    42 B    43 B    44 A    44 B    45 A    46 A    45 B                  
  0.250   0.253   0.256   0.269   0.282   0.284   0.286   0.311
 46 B    47 A    47 B    48 A    48 B    49 A    49 B    50 A                  
  0.321   0.322   0.348   0.349   0.353   0.373   0.394   0.406
 50 B    51 A    52 A    53 A    51 B    52 B    54 A    53 B                  
  0.454   0.468   0.508   0.513   0.545   0.555   0.569   0.592
 54 B    55 A    55 B    56 A    57 A    56 B    57 B    58 A                  
  0.606   0.621   0.648   0.650   0.656   0.657   0.665   0.690
 59 A    58 B    60 A    59 B    60 B    61 A    61 B    62 A                  
  0.702   0.716   0.725   0.728   0.742   0.744   0.777   0.786
 63 A    62 B    64 A    63 B    64 B    65 A    66 A    65 B                  
  0.817   0.819   0.823   0.847   0.866   0.920   0.938   0.948
 67 A    66 B    67 B    68 A    69 A    68 B    70 A    69 B                  
  0.951   0.953   0.960   0.969   0.983   0.994   0.997   1.018
 70 B    71 A    72 A    71 B    72 B    73 B    73 A    74 B                  
  1.027   1.042   1.069   1.104   1.110   1.119   1.147   1.165
 74 A    75 A    76 A    77 A    75 B    76 B    77 B    78 A                  
  1.173   1.184   1.217   1.258   1.267   1.323   1.341   1.342
 78 B    79 A    80 A    79 B    81 A    80 B    81 B    82 A                  
  1.349   1.354   1.372   1.468   1.480   1.492   1.542   1.604
 83 A    82 B    84 A    85 A    83 B    84 B    85 B    86 A                  
  1.672   1.691   1.726   1.799   1.863   1.878   1.890   1.913
 87 A    86 B    88 A    89 A    90 A    87 B    88 B    91 A                  
  1.923   1.935   1.952   2.007   2.053   2.068   2.076   2.121
 89 B    92 A    90 B    93 A    91 B    94 A    92 B    93 B                  
  2.172   2.180   2.180   2.216   2.243   2.255   2.339   2.361
 95 A    96 A    94 B    97 A    95 B    96 B    98 A    97 B                  
  2.365   2.418   2.451   2.457   2.468   2.491   2.509   2.525
 99 A    98 B    99 B   100 A   101 A   100 B   102 A   103 A                  
  2.537   2.560   2.585   2.611   2.671   2.690   2.717   2.753
101 B   102 B   104 A   103 B   105 A   106 A   104 B   105 B                  
  2.862   2.874   2.932   2.937   3.144   3.207   3.267   3.275
107 A   106 B   108 A   107 B   108 B   109 A   109 B   110 A                  
  3.399   3.428   3.720   3.742   3.973   3.984   4.235   4.297
111 A   110 B   112 A   111 B   112 B   113 A   114 A   113 B                  
  4.309   4.319   4.409   4.535   4.659   4.715
115 A   114 B   116 A   115 B   117 A   116 B                                  
 --------------------------------------------------------------
 
          Ground-State Mulliken Net Atomic Charges

     Atom                 Charge (a.u.)
  ----------------------------------------
      1 S                    -0.134505
      2 C                     0.015950
      3 C                    -0.357642
      4 C                     0.404258
      5 C                    -0.366349
      6 H                     0.116910
      7 C                    -0.366349
      8 S                    -0.134505
      9 C                     0.404258
     10 C                     0.015950
     11 C                    -0.357642
     12 H                     0.121667
     13 H                     0.199711
     14 H                     0.121667
     15 H                     0.199711
     16 H                     0.116910
  ----------------------------------------
  Sum of atomic charges =     0.000000

 -----------------------------------------------------------------
                    Cartesian Multipole Moments
 -----------------------------------------------------------------
    Charge (ESU x 10^10)
                 0.0000
    Dipole Moment (Debye)
         X      -0.0000      Y      -0.0000      Z       0.0725
       Tot       0.0725
    Quadrupole Moments (Debye-Ang)
        XX     -61.1413     XY       1.6518     YY     -68.0466
        XZ      -0.0000     YZ      -0.0000     ZZ     -78.8925
    Octopole Moments (Debye-Ang^2)
       XXX      -0.0000    XXY      -0.0000    XYY       0.0000
       YYY      -0.0000    XXZ      -0.8109    XYZ       2.1421
       YYZ       1.8967    XZZ       0.0000    YZZ      -0.0000
       ZZZ       0.7031
    Hexadecapole Moments (Debye-Ang^3)
      XXXX   -1891.9188   XXXY     -24.0645   XXYY    -422.3444
      XYYY      18.5083   YYYY    -562.7273   XXXZ      -0.0000
      XXYZ      -0.0000   XYYZ      -0.0000   YYYZ      -0.0000
      XXZZ    -427.6138   XYZZ      -8.1772   YYZZ    -126.3469
      XZZZ      -0.0000   YZZZ      -0.0000   ZZZZ    -107.4069
 -----------------------------------------------------------------
 Calculating analytic gradient of the SCF energy
 Gradient of SCF Energy
            1           2           3           4           5           6
    1  -0.0000658   0.0000726   0.0003647  -0.0000605   0.0003914  -0.0001040
    2   0.0000291  -0.0001028   0.0000164  -0.0000286   0.0001606   0.0000792
    3   0.0000819   0.0000223   0.0000281   0.0011313  -0.0002940  -0.0007610
            7           8           9          10          11          12
    1  -0.0003914   0.0000658   0.0000605  -0.0000726  -0.0003647  -0.0001183
    2  -0.0001606  -0.0000291   0.0000286   0.0001028  -0.0000164  -0.0000699
    3  -0.0002940   0.0000819   0.0011313   0.0000223   0.0000281  -0.0000145
           13          14          15          16
    1   0.0000714   0.0001183  -0.0000714   0.0001040
    2  -0.0000140   0.0000699   0.0000140  -0.0000792
    3  -0.0001943  -0.0000145  -0.0001943  -0.0007610
 Max gradient component =       1.131E-03
 RMS gradient           =       3.143E-04
 Gradient time:  CPU 1.90 s  wall 1.90 s
 Geometry Optimization Parameters
   NAtoms,    NIC,     NZ,  NCons,   NDum,   NFix, NCnnct, MaxDiis
       16     111       0       1       0       0       0       0

 Cartesian Hessian Update
 Hessian Updated using BFGS Update


** CONSTRAINED OPTIMIZATION IN DELOCALIZED INTERNAL COORDINATES **
   Searching for a Minimum

   Optimization Cycle:   2

                       Coordinates (Angstroms)
     ATOM                X               Y               Z
      1  S         1.8572539145   -1.2057440453   -0.1070084768
      2  C         3.2129866134   -0.1254187568   -0.0282452998
      3  C         2.8122148592    1.1795952214    0.0835104548
      4  C         1.3941105525    1.3216905588    0.1140511844
      5  C         0.7164120474    0.1227470077    0.0206767100
      6  H         0.8896424393    2.2785920389    0.1914478249
      7  C        -0.7164120474   -0.1227470077    0.0206767100
      8  S        -1.8572539145    1.2057440453   -0.1070084768
      9  C        -1.3941105525   -1.3216905588    0.1140511844
     10  C        -3.2129866134    0.1254187568   -0.0282452998
     11  C        -2.8122148592   -1.1795952214    0.0835104548
     12  H        -3.5032537992   -2.0127630524    0.1443402562
     13  H         4.2188545259   -0.5200035619   -0.0743116294
     14  H         3.5032537992    2.0127630524    0.1443402562
     15  H        -4.2188545259    0.5200035619   -0.0743116294
     16  H        -0.8896424393   -2.2785920389    0.1914478249
   Point Group: c2    Number of degrees of freedom:    22


   Energy is  -1104.840547754

              Constraints and their Current Values
                                        Value     Constraint
   Dihedral:        4   5   7   9     -170.000     -170.000
 Hessian Updated using BFGS Update

 21 Hessian modes will be used to form the next step
  Hessian Eigenvalues:
     0.035213    0.045000    0.045000    0.045001    0.045004    0.047303
     0.159406    0.159987    0.160038    0.221496    0.239177    0.249658
     0.296180    0.315158    0.357224    0.358813    0.361899    0.385013
     0.425587    0.474454    0.537125

 Minimum Search - Taking Simple RFO Step
 Searching for Lamda that Minimizes Along All modes
 Value Taken    Lamda =  -0.00003480
 Step Taken.  Stepsize is  0.029369

                             Maximum     Tolerance    Cnvgd?
         Gradient           0.001008      0.000300      NO
         Displacement       0.021824      0.001200      NO
         Energy change     -0.000247      0.000001      NO


 New Cartesian Coordinates Obtained by Inverse Iteration

 Displacement from previous Coordinates is:  0.030154
 ----------------------------------------------------------------
             Standard Nuclear Orientation (Angstroms)
    I     Atom           X                Y                Z
 ----------------------------------------------------------------
    1      S       1.8567271449    -1.2061502021    -0.1127292028
    2      C       3.2120153681    -0.1256550849    -0.0287736957
    3      C       2.8108938001     1.1794587347     0.0824976281
    4      C       1.3932014516     1.3216675309     0.1108473396
    5      C       0.7159505058     0.1223919654     0.0174091236
    6      H       0.8893547613     2.2781952729     0.1969107109
    7      C      -0.7159505058    -0.1223919654     0.0174091236
    8      S      -1.8567271449     1.2061502021    -0.1127292028
    9      C      -1.3932014516    -1.3216675309     0.1108473396
   10      C      -3.2120153681     0.1256550849    -0.0287736957
   11      C      -2.8108938001    -1.1794587347     0.0824976281
   12      H      -3.5016498610    -2.0124095584     0.1481625483
   13      H       4.2180697240    -0.5204207345    -0.0698634280
   14      H       3.5016498610     2.0124095584     0.1481625483
   15      H      -4.2180697240     0.5204207345    -0.0698634280
   16      H      -0.8893547613    -2.2781952729     0.1969107109
 ----------------------------------------------------------------
 Molecular Point Group                 C2    NOp =  2
 Largest Abelian Subgroup              C2    NOp =  2
 Nuclear Repulsion Energy =   629.0116612716 hartrees
 There are       43 alpha and       43 beta electrons
 Applying Cartesian multipole field
    Component          Value
    ---------          -----
     (2,0,0)        1.00000E-11
     (0,2,0)        2.00000E-11
     (0,0,2)       -3.00000E-11
 Nucleus-field energy     =     0.0000000223 hartrees
 Requested basis set is 6-31++G(d,p)
 There are 76 shells and 234 basis functions
 A cutoff of  1.0D-11 yielded   2491 shell pairs
 There are     24623 function pairs
 Smallest overlap matrix eigenvalue = 8.60E-07

 Q-Chem warning in module /project/projectdirs/jcesr/qchem/qc44/cnl_qc441/compile/cori/qc_src/stvman/mkSTV.C, line 257:

 Overlap eigenvalue is smaller than square root of threshold

 Linear dependence detected in AO basis
 Number of orthogonalized atomic orbitals = 233
 Maximum deviation from orthogonality = 3.698E-11
 Guess MOs from SCF MO coefficient file
 Reading MOs from coefficient file
 Reading MOs from coefficient file
 A restricted hybrid HF-DFT SCF calculation will be
 performed using Pulay DIIS extrapolation
 Exchange:     0.2000 Hartree-Fock + 0.0800 Slater + 0.7200 B88
 Correlation:  0.1900 VWN1RPA + 0.8100 LYP
 Using SG-1 standard quadrature grid
 SCF converges when DIIS error is below 1.0E-08
 Geometry optimization detected.  Setting ReadMinima to 0
 Setting SaveMinima to 0
 ---------------------------------------
  Cycle       Energy         DIIS Error
 ---------------------------------------
    1   -1104.8412426130      9.20E-05
    2   -1104.8405716458      7.66E-06
    3   -1104.8405711673      1.26E-05
    4   -1104.8405723354      3.09E-06
    5   -1104.8405723986      1.07E-06
    6   -1104.8405724065      4.52E-07
    7   -1104.8405724076      1.18E-07
    8   -1104.8405724085      3.75E-08
    9   -1104.8405724078      1.17E-08
   10   -1104.8405724084      1.98E-09 Convergence criterion met
 ---------------------------------------
 SCF time:  CPU 5.17 s  wall 4.56 s
 SCF   energy in the final basis set = -1104.8405724084
 Total energy in the final basis set = -1104.8405724084
 
 --------------------------------------------------------------
             Orbital Energies (a.u.) and Symmetries
 --------------------------------------------------------------
 
 Alpha MOs, Restricted
 -- Occupied --                  
-88.920 -88.920 -10.240 -10.239 -10.225 -10.225 -10.205 -10.205
  1 A     1 B     2 A     2 B     3 B     3 A     4 A     4 B                  
-10.204 -10.204  -7.979  -7.979  -5.943  -5.943  -5.940  -5.940
  5 B     5 A     6 A     6 B     7 A     7 B     8 B     8 A                  
 -5.936  -5.936  -0.900  -0.878  -0.772  -0.750  -0.737  -0.706
  9 B     9 A    10 A    10 B    11 A    11 B    12 A    12 B                  
 -0.604  -0.581  -0.551  -0.535  -0.527  -0.478  -0.420  -0.419
 13 A    13 B    14 A    14 B    15 A    15 B    16 B    16 A                  
 -0.408  -0.405  -0.402  -0.379  -0.374  -0.358  -0.343  -0.284
 17 A    17 B    18 A    19 A    18 B    19 B    20 A    21 A                  
 -0.265  -0.258  -0.212
 20 B    22 A    21 B                                                          
 -- Virtual --                   
 -0.059  -0.006  -0.004  -0.001   0.008   0.009   0.017   0.022
 23 A    24 A    22 B    23 B    25 A    24 B    25 B    26 A                  
  0.032   0.037   0.037   0.044   0.051   0.056   0.062   0.065
 27 A    28 A    26 B    29 A    30 A    27 B    28 B    29 B                  
  0.075   0.083   0.085   0.095   0.097   0.102   0.106   0.111
 30 B    31 B    31 A    32 B    32 A    33 A    34 A    35 A                  
  0.117   0.124   0.125   0.132   0.132   0.142   0.144   0.144
 33 B    36 A    34 B    35 B    37 A    36 B    37 B    38 A                  
  0.147   0.153   0.163   0.165   0.169   0.171   0.184   0.190
 39 A    38 B    40 A    39 B    41 A    40 B    42 A    41 B                  
  0.191   0.201   0.208   0.209   0.219   0.220   0.225   0.226
 43 A    42 B    43 B    44 A    44 B    45 A    46 A    45 B                  
  0.250   0.252   0.256   0.269   0.282   0.284   0.286   0.311
 46 B    47 A    47 B    48 A    48 B    49 A    49 B    50 A                  
  0.321   0.322   0.348   0.349   0.353   0.373   0.394   0.406
 50 B    51 A    52 A    53 A    51 B    52 B    54 A    53 B                  
  0.454   0.468   0.508   0.513   0.545   0.555   0.569   0.592
 54 B    55 A    55 B    56 A    57 A    56 B    57 B    58 A                  
  0.606   0.621   0.648   0.650   0.656   0.657   0.665   0.690
 59 A    58 B    60 A    59 B    60 B    61 A    61 B    62 A                  
  0.703   0.716   0.725   0.728   0.742   0.744   0.777   0.786
 63 A    62 B    64 A    63 B    64 B    65 A    66 A    65 B                  
  0.817   0.820   0.823   0.847   0.866   0.920   0.938   0.948
 67 A    66 B    67 B    68 A    69 A    68 B    70 A    69 B                  
  0.951   0.954   0.960   0.969   0.983   0.993   0.997   1.018
 70 B    71 A    72 A    71 B    72 B    73 B    73 A    74 B                  
  1.028   1.042   1.070   1.104   1.110   1.119   1.147   1.166
 74 A    75 A    76 A    77 A    75 B    76 B    77 B    78 A                  
  1.173   1.184   1.217   1.259   1.266   1.323   1.341   1.342
 78 B    79 A    80 A    79 B    81 A    80 B    82 A    81 B                  
  1.350   1.354   1.372   1.469   1.478   1.494   1.542   1.603
 83 A    82 B    84 A    85 A    83 B    84 B    85 B    86 A                  
  1.673   1.691   1.726   1.800   1.863   1.878   1.890   1.913
 87 A    86 B    88 A    89 A    90 A    87 B    88 B    91 A                  
  1.924   1.936   1.952   2.008   2.052   2.068   2.076   2.121
 89 B    92 A    90 B    93 A    91 B    94 A    92 B    93 B                  
  2.172   2.180   2.180   2.217   2.244   2.254   2.338   2.361
 95 A    96 A    94 B    97 A    95 B    96 B    98 A    97 B                  
  2.365   2.418   2.451   2.458   2.468   2.491   2.508   2.526
 99 A    98 B    99 B   100 A   101 A   100 B   102 A   103 A                  
  2.537   2.560   2.585   2.611   2.671   2.691   2.718   2.753
101 B   102 B   104 A   103 B   105 A   106 A   104 B   105 B                  
  2.863   2.874   2.932   2.937   3.144   3.207   3.267   3.276
107 A   106 B   108 A   107 B   108 B   109 A   109 B   110 A                  
  3.399   3.428   3.720   3.742   3.973   3.984   4.235   4.297
111 A   110 B   112 A   111 B   112 B   113 A   114 A   113 B                  
  4.309   4.319   4.409   4.535   4.660   4.715
115 A   114 B   116 A   115 B   117 A   116 B                                  
 
 Beta MOs, Restricted
 -- Occupied --                  
-88.920 -88.920 -10.240 -10.239 -10.225 -10.225 -10.205 -10.205
  1 A     1 B     2 A     2 B     3 B     3 A     4 A     4 B                  
-10.204 -10.204  -7.979  -7.979  -5.943  -5.943  -5.940  -5.940
  5 B     5 A     6 A     6 B     7 A     7 B     8 B     8 A                  
 -5.936  -5.936  -0.900  -0.878  -0.772  -0.750  -0.737  -0.706
  9 B     9 A    10 A    10 B    11 A    11 B    12 A    12 B                  
 -0.604  -0.581  -0.551  -0.535  -0.527  -0.478  -0.420  -0.419
 13 A    13 B    14 A    14 B    15 A    15 B    16 B    16 A                  
 -0.408  -0.405  -0.402  -0.379  -0.374  -0.358  -0.343  -0.284
 17 A    17 B    18 A    19 A    18 B    19 B    20 A    21 A                  
 -0.265  -0.258  -0.212
 20 B    22 A    21 B                                                          
 -- Virtual --                   
 -0.059  -0.006  -0.004  -0.001   0.008   0.009   0.017   0.022
 23 A    24 A    22 B    23 B    25 A    24 B    25 B    26 A                  
  0.032   0.037   0.037   0.044   0.051   0.056   0.062   0.065
 27 A    28 A    26 B    29 A    30 A    27 B    28 B    29 B                  
  0.075   0.083   0.085   0.095   0.097   0.102   0.106   0.111
 30 B    31 B    31 A    32 B    32 A    33 A    34 A    35 A                  
  0.117   0.124   0.125   0.132   0.132   0.142   0.144   0.144
 33 B    36 A    34 B    35 B    37 A    36 B    37 B    38 A                  
  0.147   0.153   0.163   0.165   0.169   0.171   0.184   0.190
 39 A    38 B    40 A    39 B    41 A    40 B    42 A    41 B                  
  0.191   0.201   0.208   0.209   0.219   0.220   0.225   0.226
 43 A    42 B    43 B    44 A    44 B    45 A    46 A    45 B                  
  0.250   0.252   0.256   0.269   0.282   0.284   0.286   0.311
 46 B    47 A    47 B    48 A    48 B    49 A    49 B    50 A                  
  0.321   0.322   0.348   0.349   0.353   0.373   0.394   0.406
 50 B    51 A    52 A    53 A    51 B    52 B    54 A    53 B                  
  0.454   0.468   0.508   0.513   0.545   0.555   0.569   0.592
 54 B    55 A    55 B    56 A    57 A    56 B    57 B    58 A                  
  0.606   0.621   0.648   0.650   0.656   0.657   0.665   0.690
 59 A    58 B    60 A    59 B    60 B    61 A    61 B    62 A                  
  0.703   0.716   0.725   0.728   0.742   0.744   0.777   0.786
 63 A    62 B    64 A    63 B    64 B    65 A    66 A    65 B                  
  0.817   0.820   0.823   0.847   0.866   0.920   0.938   0.948
 67 A    66 B    67 B    68 A    69 A    68 B    70 A    69 B                  
  0.951   0.954   0.960   0.969   0.983   0.993   0.997   1.018
 70 B    71 A    72 A    71 B    72 B    73 B    73 A    74 B                  
  1.028   1.042   1.070   1.104   1.110   1.119   1.147   1.166
 74 A    75 A    76 A    77 A    75 B    76 B    77 B    78 A                  
  1.173   1.184   1.217   1.259   1.266   1.323   1.341   1.342
 78 B    79 A    80 A    79 B    81 A    80 B    82 A    81 B                  
  1.350   1.354   1.372   1.469   1.478   1.494   1.542   1.603
 83 A    82 B    84 A    85 A    83 B    84 B    85 B    86 A                  
  1.673   1.691   1.726   1.800   1.863   1.878   1.890   1.913
 87 A    86 B    88 A    89 A    90 A    87 B    88 B    91 A                  
  1.924   1.936   1.952   2.008   2.052   2.068   2.076   2.121
 89 B    92 A    90 B    93 A    91 B    94 A    92 B    93 B                  
  2.172   2.180   2.180   2.217   2.244   2.254   2.338   2.361
 95 A    96 A    94 B    97 A    95 B    96 B    98 A    97 B                  
  2.365   2.418   2.451   2.458   2.468   2.491   2.508   2.526
 99 A    98 B    99 B   100 A   101 A   100 B   102 A   103 A                  
  2.537   2.560   2.585   2.611   2.671   2.691   2.718   2.753
101 B   102 B   104 A   103 B   105 A   106 A   104 B   105 B                  
  2.863   2.874   2.932   2.937   3.144   3.207   3.267   3.276
107 A   106 B   108 A   107 B   108 B   109 A   109 B   110 A                  
  3.399   3.428   3.720   3.742   3.973   3.984   4.235   4.297
111 A   110 B   112 A   111 B   112 B   113 A   114 A   113 B                  
  4.309   4.319   4.409   4.535   4.660   4.715
115 A   114 B   116 A   115 B   117 A   116 B                                  
 --------------------------------------------------------------
 
          Ground-State Mulliken Net Atomic Charges

     Atom                 Charge (a.u.)
  ----------------------------------------
      1 S                    -0.135355
      2 C                     0.016976
      3 C                    -0.361002
      4 C                     0.412222
      5 C                    -0.371377
      6 H                     0.117306
      7 C                    -0.371377
      8 S                    -0.135355
      9 C                     0.412222
     10 C                     0.016976
     11 C                    -0.361002
     12 H                     0.121520
     13 H                     0.199710
     14 H                     0.121520
     15 H                     0.199710
     16 H                     0.117306
  ----------------------------------------
  Sum of atomic charges =     0.000000

 -----------------------------------------------------------------
                    Cartesian Multipole Moments
 -----------------------------------------------------------------
    Charge (ESU x 10^10)
                 0.0000
    Dipole Moment (Debye)
         X      -0.0000      Y       0.0000      Z       0.0980
       Tot       0.0980
    Quadrupole Moments (Debye-Ang)
        XX     -61.1659     XY       1.6410     YY     -68.0413
        XZ      -0.0000     YZ       0.0000     ZZ     -78.8829
    Octopole Moments (Debye-Ang^2)
       XXX      -0.0000    XXY      -0.0000    XYY      -0.0000
       YYY      -0.0000    XXZ      -0.2994    XYZ       2.2103
       YYZ       2.2202    XZZ       0.0000    YZZ       0.0000
       ZZZ       1.4006
    Hexadecapole Moments (Debye-Ang^3)
      XXXX   -1891.1146   XXXY     -24.0930   XXYY    -422.1478
      XYYY      18.6097   YYYY    -562.8215   XXXZ       0.0000
      XXYZ       0.0000   XYYZ      -0.0000   YYYZ       0.0000
      XXZZ    -427.3658   XYZZ      -8.0879   YYZZ    -126.3331
      XZZZ       0.0000   YZZZ       0.0000   ZZZZ    -107.5505
 -----------------------------------------------------------------
 Calculating analytic gradient of the SCF energy
 Gradient of SCF Energy
            1           2           3           4           5           6
    1  -0.0000368  -0.0000314   0.0000537  -0.0000186   0.0000380  -0.0000260
    2  -0.0002001  -0.0001705   0.0001753   0.0001118  -0.0000900   0.0001383
    3  -0.0000611   0.0001166  -0.0001397   0.0005096   0.0000229  -0.0004350
            7           8           9          10          11          12
    1  -0.0000380   0.0000368   0.0000186   0.0000314  -0.0000537  -0.0000510
    2   0.0000900   0.0002001  -0.0001118   0.0001705  -0.0001753  -0.0000540
    3   0.0000229  -0.0000611   0.0005096   0.0001166  -0.0001397   0.0000589
           13          14          15          16
    1   0.0000872   0.0000510  -0.0000872   0.0000260
    2  -0.0000521   0.0000540   0.0000521  -0.0001383
    3  -0.0000722   0.0000589  -0.0000722  -0.0004350
 Max gradient component =       5.096E-04
 RMS gradient           =       1.656E-04
 Gradient time:  CPU 1.89 s  wall 1.90 s
 Geometry Optimization Parameters
   NAtoms,    NIC,     NZ,  NCons,   NDum,   NFix, NCnnct, MaxDiis
       16     111       0       1       0       0       0       0

 Cartesian Hessian Update
 Hessian Updated using BFGS Update


** CONSTRAINED OPTIMIZATION IN DELOCALIZED INTERNAL COORDINATES **
   Searching for a Minimum

   Optimization Cycle:   3

                       Coordinates (Angstroms)
     ATOM                X               Y               Z
      1  S         1.8567271449   -1.2061502021   -0.1127292028
      2  C         3.2120153681   -0.1256550849   -0.0287736957
      3  C         2.8108938001    1.1794587347    0.0824976281
      4  C         1.3932014516    1.3216675309    0.1108473396
      5  C         0.7159505058    0.1223919654    0.0174091236
      6  H         0.8893547613    2.2781952729    0.1969107109
      7  C        -0.7159505058   -0.1223919654    0.0174091236
      8  S        -1.8567271449    1.2061502021   -0.1127292028
      9  C        -1.3932014516   -1.3216675309    0.1108473396
     10  C        -3.2120153681    0.1256550849   -0.0287736957
     11  C        -2.8108938001   -1.1794587347    0.0824976281
     12  H        -3.5016498610   -2.0124095584    0.1481625483
     13  H         4.2180697240   -0.5204207345   -0.0698634280
     14  H         3.5016498610    2.0124095584    0.1481625483
     15  H        -4.2180697240    0.5204207345   -0.0698634280
     16  H        -0.8893547613   -2.2781952729    0.1969107109
   Point Group: c2    Number of degrees of freedom:    22


   Energy is  -1104.840572408

              Constraints and their Current Values
                                        Value     Constraint
   Dihedral:        4   5   7   9     -170.000     -170.000
 Hessian Updated using BFGS Update

 21 Hessian modes will be used to form the next step
  Hessian Eigenvalues:
     0.018120    0.045000    0.045001    0.045004    0.045348    0.049319
     0.159939    0.160017    0.161051    0.221364    0.247553    0.252675
     0.296904    0.315598    0.357491    0.358790    0.362933    0.389772
     0.430365    0.476312    0.528600

 Minimum Search - Taking Simple RFO Step
 Searching for Lamda that Minimizes Along All modes
 Value Taken    Lamda =  -0.00001941
 Step Taken.  Stepsize is  0.031420

                             Maximum     Tolerance    Cnvgd?
         Gradient           0.000463      0.000300      NO
         Displacement       0.020900      0.001200      NO
         Energy change     -0.000025      0.000001      NO


 New Cartesian Coordinates Obtained by Inverse Iteration

 Displacement from previous Coordinates is:  0.034044
 ----------------------------------------------------------------
             Standard Nuclear Orientation (Angstroms)
    I     Atom           X                Y                Z
 ----------------------------------------------------------------
    1      S       1.8569252354    -1.2055657225    -0.1173909993
    2      C       3.2122078533    -0.1252980461    -0.0324900161
    3      C       2.8107105641     1.1792446097     0.0813848089
    4      C       1.3932017169     1.3211974700     0.1103360321
    5      C       0.7157964666     0.1221743086     0.0169020983
    6      H       0.8897288473     2.2766874069     0.2074929312
    7      C      -0.7157964666    -0.1221743086     0.0169020983
    8      S      -1.8569252354     1.2055657225    -0.1173909993
    9      C      -1.3932017169    -1.3211974700     0.1103360321
   10      C      -3.2122078533     0.1252980461    -0.0324900161
   11      C      -2.8107105641    -1.1792446097     0.0813848089
   12      H      -3.5013147204    -2.0119113937     0.1502559153
   13      H       4.2182330051    -0.5199795204    -0.0720297465
   14      H       3.5013147204     2.0119113937     0.1502559153
   15      H      -4.2182330051     0.5199795204    -0.0720297465
   16      H      -0.8897288473    -2.2766874069     0.2074929312
 ----------------------------------------------------------------
 Molecular Point Group                 C2    NOp =  2
 Largest Abelian Subgroup              C2    NOp =  2
 Nuclear Repulsion Energy =   629.0546489735 hartrees
 There are       43 alpha and       43 beta electrons
 Applying Cartesian multipole field
    Component          Value
    ---------          -----
     (2,0,0)        1.00000E-11
     (0,2,0)        2.00000E-11
     (0,0,2)       -3.00000E-11
 Nucleus-field energy     =     0.0000000223 hartrees
 Requested basis set is 6-31++G(d,p)
 There are 76 shells and 234 basis functions
 A cutoff of  1.0D-11 yielded   2491 shell pairs
 There are     24623 function pairs
 Smallest overlap matrix eigenvalue = 8.61E-07

 Q-Chem warning in module /project/projectdirs/jcesr/qchem/qc44/cnl_qc441/compile/cori/qc_src/stvman/mkSTV.C, line 257:

 Overlap eigenvalue is smaller than square root of threshold

 Linear dependence detected in AO basis
 Number of orthogonalized atomic orbitals = 233
 Maximum deviation from orthogonality = 9.974E-11
 Guess MOs from SCF MO coefficient file
 Reading MOs from coefficient file
 Reading MOs from coefficient file
 A restricted hybrid HF-DFT SCF calculation will be
 performed using Pulay DIIS extrapolation
 Exchange:     0.2000 Hartree-Fock + 0.0800 Slater + 0.7200 B88
 Correlation:  0.1900 VWN1RPA + 0.8100 LYP
 Using SG-1 standard quadrature grid
 SCF converges when DIIS error is below 1.0E-08
 Geometry optimization detected.  Setting ReadMinima to 0
 Setting SaveMinima to 0
 ---------------------------------------
  Cycle       Energy         DIIS Error
 ---------------------------------------
    1   -1104.8421564171      8.29E-05
    2   -1104.8405819738      1.09E-05
    3   -1104.8405796112      2.17E-05
    4   -1104.8405831277      3.03E-06
    5   -1104.8405831830      1.32E-06
    6   -1104.8405831955      3.99E-07
    7   -1104.8405831951      1.06E-07
    8   -1104.8405831972      4.78E-08
    9   -1104.8405831964      1.08E-08
   10   -1104.8405831970      2.24E-09 Convergence criterion met
 ---------------------------------------
 SCF time:  CPU 5.37 s  wall 4.71 s
 SCF   energy in the final basis set = -1104.8405831970
 Total energy in the final basis set = -1104.8405831970
 
 --------------------------------------------------------------
             Orbital Energies (a.u.) and Symmetries
 --------------------------------------------------------------
 
 Alpha MOs, Restricted
 -- Occupied --                  
-88.920 -88.920 -10.240 -10.239 -10.225 -10.225 -10.205 -10.205
  1 A     1 B     2 A     2 B     3 B     3 A     4 A     4 B                  
-10.204 -10.204  -7.979  -7.979  -5.943  -5.943  -5.940  -5.940
  5 B     5 A     6 A     6 B     7 A     7 B     8 B     8 A                  
 -5.936  -5.936  -0.901  -0.878  -0.772  -0.750  -0.737  -0.706
  9 B     9 A    10 A    10 B    11 A    11 B    12 A    12 B                  
 -0.605  -0.581  -0.551  -0.535  -0.527  -0.478  -0.420  -0.419
 13 A    13 B    14 A    14 B    15 A    15 B    16 B    16 A                  
 -0.408  -0.405  -0.402  -0.379  -0.374  -0.358  -0.343  -0.284
 17 A    17 B    18 A    19 A    18 B    19 B    20 A    21 A                  
 -0.265  -0.258  -0.212
 20 B    22 A    21 B                                                          
 -- Virtual --                   
 -0.059  -0.006  -0.004  -0.001   0.008   0.009   0.017   0.022
 23 A    24 A    22 B    23 B    25 A    24 B    25 B    26 A                  
  0.032   0.037   0.037   0.044   0.051   0.056   0.062   0.065
 27 A    28 A    26 B    29 A    30 A    27 B    28 B    29 B                  
  0.075   0.083   0.085   0.095   0.097   0.102   0.106   0.111
 30 B    31 B    31 A    32 B    32 A    33 A    34 A    35 A                  
  0.117   0.125   0.125   0.132   0.132   0.142   0.144   0.144
 33 B    36 A    34 B    35 B    37 A    36 B    37 B    38 A                  
  0.147   0.153   0.163   0.165   0.169   0.171   0.184   0.190
 39 A    38 B    40 A    39 B    41 A    40 B    42 A    41 B                  
  0.191   0.201   0.208   0.209   0.219   0.220   0.225   0.226
 43 A    42 B    43 B    44 A    44 B    45 A    46 A    45 B                  
  0.250   0.252   0.256   0.269   0.283   0.284   0.286   0.311
 46 B    47 A    47 B    48 A    48 B    49 A    49 B    50 A                  
  0.321   0.322   0.348   0.350   0.353   0.373   0.394   0.406
 50 B    51 A    52 A    53 A    51 B    52 B    54 A    53 B                  
  0.454   0.469   0.508   0.513   0.545   0.555   0.569   0.591
 54 B    55 A    55 B    56 A    57 A    56 B    57 B    58 A                  
  0.607   0.621   0.648   0.650   0.657   0.657   0.665   0.689
 59 A    58 B    60 A    59 B    60 B    61 A    61 B    62 A                  
  0.703   0.716   0.725   0.728   0.742   0.745   0.777   0.786
 63 A    62 B    64 A    63 B    64 B    65 A    66 A    65 B                  
  0.817   0.820   0.823   0.847   0.866   0.920   0.938   0.948
 67 A    66 B    67 B    68 A    69 A    68 B    70 A    69 B                  
  0.951   0.954   0.960   0.969   0.983   0.993   0.997   1.018
 70 B    71 A    72 A    71 B    72 B    73 B    73 A    74 B                  
  1.028   1.042   1.071   1.104   1.110   1.119   1.147   1.166
 74 A    75 A    76 A    77 A    75 B    76 B    77 B    78 A                  
  1.173   1.184   1.218   1.259   1.265   1.322   1.340   1.343
 78 B    79 A    80 A    79 B    81 A    80 B    82 A    81 B                  
  1.351   1.354   1.371   1.471   1.475   1.497   1.542   1.602
 83 A    82 B    84 A    85 A    83 B    84 B    85 B    86 A                  
  1.673   1.691   1.726   1.801   1.863   1.878   1.891   1.914
 87 A    86 B    88 A    89 A    90 A    87 B    88 B    91 A                  
  1.924   1.936   1.953   2.008   2.052   2.068   2.077   2.121
 89 B    92 A    90 B    93 A    91 B    94 A    92 B    93 B                  
  2.172   2.180   2.180   2.217   2.245   2.254   2.339   2.361
 95 A    94 B    96 A    97 A    95 B    96 B    98 A    97 B                  
  2.365   2.418   2.451   2.458   2.468   2.491   2.508   2.527
 99 A    98 B    99 B   100 A   101 A   100 B   102 A   103 A                  
  2.538   2.560   2.586   2.611   2.672   2.691   2.718   2.753
101 B   102 B   104 A   103 B   105 A   106 A   104 B   105 B                  
  2.863   2.874   2.933   2.937   3.144   3.208   3.268   3.276
107 A   106 B   108 A   107 B   108 B   109 A   109 B   110 A                  
  3.399   3.428   3.721   3.743   3.973   3.984   4.235   4.297
111 A   110 B   112 A   111 B   112 B   113 A   114 A   113 B                  
  4.309   4.319   4.409   4.535   4.660   4.716
115 A   114 B   116 A   115 B   117 A   116 B                                  
 
 Beta MOs, Restricted
 -- Occupied --                  
-88.920 -88.920 -10.240 -10.239 -10.225 -10.225 -10.205 -10.205
  1 A     1 B     2 A     2 B     3 B     3 A     4 A     4 B                  
-10.204 -10.204  -7.979  -7.979  -5.943  -5.943  -5.940  -5.940
  5 B     5 A     6 A     6 B     7 A     7 B     8 B     8 A                  
 -5.936  -5.936  -0.901  -0.878  -0.772  -0.750  -0.737  -0.706
  9 B     9 A    10 A    10 B    11 A    11 B    12 A    12 B                  
 -0.605  -0.581  -0.551  -0.535  -0.527  -0.478  -0.420  -0.419
 13 A    13 B    14 A    14 B    15 A    15 B    16 B    16 A                  
 -0.408  -0.405  -0.402  -0.379  -0.374  -0.358  -0.343  -0.284
 17 A    17 B    18 A    19 A    18 B    19 B    20 A    21 A                  
 -0.265  -0.258  -0.212
 20 B    22 A    21 B                                                          
 -- Virtual --                   
 -0.059  -0.006  -0.004  -0.001   0.008   0.009   0.017   0.022
 23 A    24 A    22 B    23 B    25 A    24 B    25 B    26 A                  
  0.032   0.037   0.037   0.044   0.051   0.056   0.062   0.065
 27 A    28 A    26 B    29 A    30 A    27 B    28 B    29 B                  
  0.075   0.083   0.085   0.095   0.097   0.102   0.106   0.111
 30 B    31 B    31 A    32 B    32 A    33 A    34 A    35 A                  
  0.117   0.125   0.125   0.132   0.132   0.142   0.144   0.144
 33 B    36 A    34 B    35 B    37 A    36 B    37 B    38 A                  
  0.147   0.153   0.163   0.165   0.169   0.171   0.184   0.190
 39 A    38 B    40 A    39 B    41 A    40 B    42 A    41 B                  
  0.191   0.201   0.208   0.209   0.219   0.220   0.225   0.226
 43 A    42 B    43 B    44 A    44 B    45 A    46 A    45 B                  
  0.250   0.252   0.256   0.269   0.283   0.284   0.286   0.311
 46 B    47 A    47 B    48 A    48 B    49 A    49 B    50 A                  
  0.321   0.322   0.348   0.350   0.353   0.373   0.394   0.406
 50 B    51 A    52 A    53 A    51 B    52 B    54 A    53 B                  
  0.454   0.469   0.508   0.513   0.545   0.555   0.569   0.591
 54 B    55 A    55 B    56 A    57 A    56 B    57 B    58 A                  
  0.607   0.621   0.648   0.650   0.657   0.657   0.665   0.689
 59 A    58 B    60 A    59 B    60 B    61 A    61 B    62 A                  
  0.703   0.716   0.725   0.728   0.742   0.745   0.777   0.786
 63 A    62 B    64 A    63 B    64 B    65 A    66 A    65 B                  
  0.817   0.820   0.823   0.847   0.866   0.920   0.938   0.948
 67 A    66 B    67 B    68 A    69 A    68 B    70 A    69 B                  
  0.951   0.954   0.960   0.969   0.983   0.993   0.997   1.018
 70 B    71 A    72 A    71 B    72 B    73 B    73 A    74 B                  
  1.028   1.042   1.071   1.104   1.110   1.119   1.147   1.166
 74 A    75 A    76 A    77 A    75 B    76 B    77 B    78 A                  
  1.173   1.184   1.218   1.259   1.265   1.322   1.340   1.343
 78 B    79 A    80 A    79 B    81 A    80 B    82 A    81 B                  
  1.351   1.354   1.371   1.471   1.475   1.497   1.542   1.602
 83 A    82 B    84 A    85 A    83 B    84 B    85 B    86 A                  
  1.673   1.691   1.726   1.801   1.863   1.878   1.891   1.914
 87 A    86 B    88 A    89 A    90 A    87 B    88 B    91 A                  
  1.924   1.936   1.953   2.008   2.052   2.068   2.077   2.121
 89 B    92 A    90 B    93 A    91 B    94 A    92 B    93 B                  
  2.172   2.180   2.180   2.217   2.245   2.254   2.339   2.361
 95 A    94 B    96 A    97 A    95 B    96 B    98 A    97 B                  
  2.365   2.418   2.451   2.458   2.468   2.491   2.508   2.527
 99 A    98 B    99 B   100 A   101 A   100 B   102 A   103 A                  
  2.538   2.560   2.586   2.611   2.672   2.691   2.718   2.753
101 B   102 B   104 A   103 B   105 A   106 A   104 B   105 B                  
  2.863   2.874   2.933   2.937   3.144   3.208   3.268   3.276
107 A   106 B   108 A   107 B   108 B   109 A   109 B   110 A                  
  3.399   3.428   3.721   3.743   3.973   3.984   4.235   4.297
111 A   110 B   112 A   111 B   112 B   113 A   114 A   113 B                  
  4.309   4.319   4.409   4.535   4.660   4.716
115 A   114 B   116 A   115 B   117 A   116 B                                  
 --------------------------------------------------------------
 
          Ground-State Mulliken Net Atomic Charges

     Atom                 Charge (a.u.)
  ----------------------------------------
      1 S                    -0.136765
      2 C                     0.019371
      3 C                    -0.364814
      4 C                     0.421120
      5 C                    -0.377924
      6 H                     0.117751
      7 C                    -0.377924
      8 S                    -0.136765
      9 C                     0.421120
     10 C                     0.019371
     11 C                    -0.364814
     12 H                     0.121401
     13 H                     0.199858
     14 H                     0.121401
     15 H                     0.199858
     16 H                     0.117751
  ----------------------------------------
  Sum of atomic charges =     0.000000

 -----------------------------------------------------------------
                    Cartesian Multipole Moments
 -----------------------------------------------------------------
    Charge (ESU x 10^10)
                 0.0000
    Dipole Moment (Debye)
         X       0.0000      Y       0.0000      Z       0.1205
       Tot       0.1205
    Quadrupole Moments (Debye-Ang)
        XX     -61.1563     XY       1.6397     YY     -68.0612
        XZ      -0.0000     YZ      -0.0000     ZZ     -78.8672
    Octopole Moments (Debye-Ang^2)
       XXX       0.0000    XXY      -0.0000    XYY      -0.0000
       YYY      -0.0000    XXZ      -0.0412    XYZ       2.2929
       YYZ       2.5283    XZZ       0.0000    YZZ      -0.0000
       ZZZ       1.9599
    Hexadecapole Moments (Debye-Ang^3)
      XXXX   -1890.9427   XXXY     -24.1870   XXYY    -422.1872
      XYYY      18.5241   YYYY    -562.6175   XXXZ      -0.0000
      XXYZ      -0.0000   XYYZ      -0.0000   YYYZ      -0.0000
      XXZZ    -427.3452   XYZZ      -8.0765   YYZZ    -126.2302
      XZZZ      -0.0000   YZZZ      -0.0000   ZZZZ    -107.7394
 -----------------------------------------------------------------
 Calculating analytic gradient of the SCF energy
 Gradient of SCF Energy
            1           2           3           4           5           6
    1   0.0000219   0.0000695  -0.0000257  -0.0000007  -0.0001981   0.0000483
    2   0.0000258  -0.0000326   0.0000088   0.0000226  -0.0001488   0.0000123
    3   0.0000210   0.0000438  -0.0001606  -0.0002052   0.0002511  -0.0000703
            7           8           9          10          11          12
    1   0.0001981  -0.0000219   0.0000007  -0.0000695   0.0000257  -0.0000119
    2   0.0001488  -0.0000258  -0.0000226   0.0000326  -0.0000088   0.0000323
    3   0.0002511   0.0000210  -0.0002052   0.0000438  -0.0001606   0.0001036
           13          14          15          16
    1   0.0000196   0.0000119  -0.0000196  -0.0000483
    2  -0.0000216  -0.0000323   0.0000216  -0.0000123
    3   0.0000165   0.0001036   0.0000165  -0.0000703
 Max gradient component =       2.511E-04
 RMS gradient           =       9.649E-05
 Gradient time:  CPU 1.92 s  wall 1.92 s
 Geometry Optimization Parameters
   NAtoms,    NIC,     NZ,  NCons,   NDum,   NFix, NCnnct, MaxDiis
[...]
  3.399   3.428   3.721   3.743   3.973   3.984   4.235   4.297
111 A   110 B   112 A   111 B   112 B   113 A   114 A   113 B                  
  4.309   4.319   4.409   4.535   4.660   4.716
115 A   114 B   116 A   115 B   117 A   116 B                                  
 --------------------------------------------------------------
 
          Ground-State Mulliken Net Atomic Charges

     Atom                 Charge (a.u.)
  ----------------------------------------
      1 S                    -0.136892
      2 C                     0.019579
      3 C                    -0.362937
      4 C                     0.420345
      5 C                    -0.379212
      6 H                     0.117893
      7 C                    -0.379212
      8 S                    -0.136892
      9 C                     0.420345
     10 C                     0.019579
     11 C                    -0.362937
     12 H                     0.121373
     13 H                     0.199851
     14 H                     0.121373
     15 H                     0.199851
     16 H                     0.117893
  ----------------------------------------
  Sum of atomic charges =    -0.000000

 -----------------------------------------------------------------
                    Cartesian Multipole Moments
 -----------------------------------------------------------------
    Charge (ESU x 10^10)
                 0.0000
    Dipole Moment (Debye)
         X      -0.0000      Y      -0.0000      Z       0.1142
       Tot       0.1142
    Quadrupole Moments (Debye-Ang)
        XX     -61.1641     XY       1.6417     YY     -68.0633
        XZ       0.0000     YZ      -0.0000     ZZ     -78.8592
    Octopole Moments (Debye-Ang^2)
       XXX      -0.0000    XXY      -0.0000    XYY      -0.0000
       YYY      -0.0000    XXZ      -0.3690    XYZ       2.3270
       YYZ       2.5686    XZZ       0.0000    YZZ       0.0000
       ZZZ       1.9693
    Hexadecapole Moments (Debye-Ang^3)
      XXXX   -1890.7391   XXXY     -24.1590   XXYY    -422.0640
      XYYY      18.3961   YYYY    -562.5220   XXXZ      -0.0000
      XXYZ      -0.0000   XYYZ      -0.0000   YYYZ      -0.0000
      XXZZ    -427.2349   XYZZ      -8.1421   YYZZ    -126.1938
      XZZZ      -0.0000   YZZZ       0.0000   ZZZZ    -107.9557
 -----------------------------------------------------------------
 Calculating analytic gradient of the SCF energy
 Gradient of SCF Energy
            1           2           3           4           5           6
    1  -0.0000024  -0.0000107   0.0000061  -0.0000011   0.0000431   0.0000056
    2  -0.0000053  -0.0000013  -0.0000286   0.0000121  -0.0000360  -0.0000150
    3   0.0000488   0.0000015  -0.0000056  -0.0004070   0.0003243   0.0000347
            7           8           9          10          11          12
    1  -0.0000431   0.0000024   0.0000011   0.0000107  -0.0000061  -0.0000038
    2   0.0000360   0.0000053  -0.0000121   0.0000013   0.0000286   0.0000238
    3   0.0003243   0.0000488  -0.0004070   0.0000015  -0.0000056   0.0000078
           13          14          15          16
    1  -0.0000114   0.0000038   0.0000114  -0.0000056
    2  -0.0000219  -0.0000238   0.0000219   0.0000150
    3  -0.0000045   0.0000078  -0.0000045   0.0000347
 Max gradient component =       4.070E-04
 RMS gradient           =       1.081E-04
 Gradient time:  CPU 1.90 s  wall 1.90 s
 Geometry Optimization Parameters
   NAtoms,    NIC,     NZ,  NCons,   NDum,   NFix, NCnnct, MaxDiis
       16     111       0       1       0       0       0       0

 Cartesian Hessian Update
 Hessian Updated using BFGS Update


** CONSTRAINED OPTIMIZATION IN DELOCALIZED INTERNAL COORDINATES **
   Searching for a Minimum

   Optimization Cycle:   6

                       Coordinates (Angstroms)
     ATOM                X               Y               Z
      1  S         1.8563248054   -1.2053295095   -0.1191804513
      2  C         3.2117082845   -0.1250655132   -0.0372711256
      3  C         2.8107546518    1.1792236174    0.0810241937
      4  C         1.3933311609    1.3210541937    0.1150811473
      5  C         0.7159073327    0.1221782280    0.0216586322
      6  H         0.8896308433    2.2758433276    0.2178969530
      7  C        -0.7159073327   -0.1221782280    0.0216586322
      8  S        -1.8563248054    1.2053295095   -0.1191804513
      9  C        -1.3933311609   -1.3210541937    0.1150811473
     10  C        -3.2117082845    0.1250655132   -0.0372711256
     11  C        -2.8107546518   -1.1792236174    0.0810241937
     12  H        -3.5015888774   -2.0119207422    0.1470113471
     13  H         4.2175367294   -0.5196233964   -0.0817596724
     14  H         3.5015888774    2.0119207422    0.1470113471
     15  H        -4.2175367294    0.5196233964   -0.0817596724
     16  H        -0.8896308433   -2.2758433276    0.2178969530
   Point Group: c2    Number of degrees of freedom:    22


   Energy is  -1104.840585793

              Constraints and their Current Values
                                        Value     Constraint
   Dihedral:        4   5   7   9     -170.000     -170.000
 Hessian Updated using BFGS Update

 21 Hessian modes will be used to form the next step
  Hessian Eigenvalues:
     0.010978    0.025069    0.045001    0.045031    0.045762    0.050925
     0.159910    0.160582    0.161002    0.223362    0.250015    0.277553
     0.296664    0.316138    0.357601    0.359702    0.363039    0.389083
     0.443002    0.482184    0.530333

 Minimum Search - Taking Simple RFO Step
 Searching for Lamda that Minimizes Along All modes
 Value Taken    Lamda =   0.00000000
 Step Taken.  Stepsize is  0.003143

                             Maximum     Tolerance    Cnvgd?
         Gradient           0.000066      0.000300     YES
         Displacement       0.002086      0.001200      NO
         Energy change     -0.000001      0.000001     YES

 Final energy is   -1104.84058579258     


 ******************************
 **  OPTIMIZATION CONVERGED  **
 ******************************

                       Coordinates (Angstroms)
     ATOM                X               Y               Z
      1  S         1.8563248054   -1.2053295095   -0.1191804513
      2  C         3.2117082845   -0.1250655132   -0.0372711256
      3  C         2.8107546518    1.1792236174    0.0810241937
      4  C         1.3933311609    1.3210541937    0.1150811473
      5  C         0.7159073327    0.1221782280    0.0216586322
      6  H         0.8896308433    2.2758433276    0.2178969530
      7  C        -0.7159073327   -0.1221782280    0.0216586322
      8  S        -1.8563248054    1.2053295095   -0.1191804513
      9  C        -1.3933311609   -1.3210541937    0.1150811473
     10  C        -3.2117082845    0.1250655132   -0.0372711256
     11  C        -2.8107546518   -1.1792236174    0.0810241937
     12  H        -3.5015888774   -2.0119207422    0.1470113471
     13  H         4.2175367294   -0.5196233964   -0.0817596724
     14  H         3.5015888774    2.0119207422    0.1470113471
     15  H        -4.2175367294    0.5196233964   -0.0817596724
     16  H        -0.8896308433   -2.2758433276    0.2178969530

Z-matrix Print:
$molecule
0 1
S 
C  1 1.735150
H  2 1.081363 1 119.832630
C  2 1.369645 1 111.609277 3 -179.982904 0
H  4 1.083970 2 123.382335 1 179.967158 0
C  4 1.424909 2 112.833603 1 -0.352559 0
H  6 1.084393 4 123.502012 2 -179.180841 0
C  6 1.380194 4 113.588271 2 0.037165 0
C  8 1.452516 6 129.046579 4 179.957891 0
C  9 1.380194 8 129.046579 6 170.000021 0
H  10 1.084393 9 122.904860 8 -0.818787 0
C  10 1.424909 9 113.588271 8 179.957891 0
H  12 1.083970 10 123.783236 9 179.715959 0
C  12 1.369645 10 112.833603 9 0.037165 0
H  14 1.081363 12 128.558090 10 179.666406 0
S  14 1.735150 12 111.609277 10 -0.352559 0
$end

 
 --------------------------------------------------------------
             Orbital Energies (a.u.) and Symmetries
 --------------------------------------------------------------
 
 Alpha MOs, Restricted
 -- Occupied --                  
-88.920 -88.920 -10.240 -10.239 -10.225 -10.225 -10.205 -10.205
  1 A     1 B     2 A     2 B     3 B     3 A     4 A     4 B                  
-10.204 -10.204  -7.979  -7.979  -5.943  -5.943  -5.940  -5.940
  5 B     5 A     6 A     6 B     7 A     7 B     8 B     8 A                  
 -5.936  -5.936  -0.901  -0.878  -0.772  -0.750  -0.737  -0.706
  9 B     9 A    10 A    10 B    11 A    11 B    12 A    12 B                  
 -0.604  -0.581  -0.551  -0.535  -0.527  -0.478  -0.420  -0.419
 13 A    13 B    14 A    14 B    15 A    15 B    16 B    16 A                  
 -0.408  -0.405  -0.402  -0.379  -0.374  -0.358  -0.343  -0.284
 17 A    17 B    18 A    19 A    18 B    19 B    20 A    21 A                  
 -0.265  -0.258  -0.212
 20 B    22 A    21 B                                                          
 -- Virtual --                   
 -0.059  -0.006  -0.004  -0.001   0.008   0.009   0.017   0.022
 23 A    24 A    22 B    23 B    25 A    24 B    25 B    26 A                  
  0.032   0.037   0.037   0.044   0.051   0.056   0.062   0.065
 27 A    28 A    26 B    29 A    30 A    27 B    28 B    29 B                  
  0.075   0.083   0.085   0.096   0.097   0.102   0.106   0.111
 30 B    31 B    31 A    32 B    32 A    33 A    34 A    35 A                  
  0.117   0.125   0.125   0.132   0.132   0.142   0.144   0.144
 33 B    34 B    36 A    35 B    37 A    36 B    37 B    38 A                  
  0.148   0.153   0.163   0.165   0.169   0.171   0.184   0.190
 39 A    38 B    40 A    39 B    41 A    40 B    42 A    41 B                  
  0.190   0.201   0.208   0.210   0.219   0.220   0.225   0.226
 43 A    42 B    43 B    44 A    44 B    45 A    46 A    45 B                  
  0.250   0.252   0.256   0.269   0.283   0.284   0.285   0.311
 46 B    47 A    47 B    48 A    48 B    49 A    49 B    50 A                  
  0.321   0.323   0.348   0.350   0.353   0.373   0.394   0.406
 50 B    51 A    52 A    53 A    51 B    52 B    54 A    53 B                  
  0.454   0.468   0.508   0.513   0.545   0.555   0.569   0.591
 54 B    55 A    55 B    56 A    57 A    56 B    57 B    58 A                  
  0.607   0.621   0.647   0.649   0.657   0.657   0.665   0.689
 59 A    58 B    60 A    59 B    60 B    61 A    61 B    62 A                  
  0.702   0.716   0.725   0.728   0.742   0.745   0.777   0.786
 63 A    62 B    64 A    63 B    64 B    65 A    66 A    65 B                  
  0.817   0.820   0.823   0.847   0.866   0.921   0.938   0.948
 67 A    66 B    67 B    68 A    69 A    68 B    70 A    69 B                  
  0.951   0.955   0.960   0.969   0.983   0.993   0.996   1.018
 70 B    71 A    72 A    71 B    72 B    73 B    73 A    74 B                  
  1.028   1.042   1.071   1.104   1.110   1.119   1.147   1.166
 74 A    75 A    76 A    77 A    75 B    76 B    77 B    78 A                  
  1.173   1.184   1.218   1.259   1.264   1.321   1.341   1.344
 78 B    79 A    80 A    79 B    81 A    80 B    82 A    81 B                  
  1.351   1.354   1.371   1.471   1.474   1.499   1.543   1.601
 83 A    82 B    84 A    85 A    83 B    84 B    85 B    86 A                  
  1.674   1.691   1.726   1.801   1.862   1.878   1.890   1.914
 87 A    86 B    88 A    89 A    90 A    87 B    88 B    91 A                  
  1.924   1.936   1.953   2.008   2.052   2.068   2.077   2.120
 89 B    92 A    90 B    93 A    91 B    94 A    92 B    93 B                  
  2.172   2.180   2.181   2.217   2.246   2.254   2.338   2.361
 95 A    94 B    96 A    97 A    95 B    96 B    98 A    97 B                  
  2.365   2.418   2.451   2.458   2.468   2.491   2.508   2.527
 99 A    98 B    99 B   100 A   101 A   100 B   102 A   103 A                  
  2.538   2.560   2.586   2.611   2.672   2.691   2.718   2.753
101 B   102 B   104 A   103 B   105 A   106 A   104 B   105 B                  
  2.863   2.874   2.933   2.938   3.144   3.208   3.268   3.276
107 A   106 B   108 A   107 B   108 B   109 A   109 B   110 A                  
  3.399   3.428   3.721   3.743   3.973   3.984   4.235   4.297
111 A   110 B   112 A   111 B   112 B   113 A   114 A   113 B                  
  4.309   4.319   4.409   4.535   4.660   4.716
115 A   114 B   116 A   115 B   117 A   116 B                                  
 
 Beta MOs, Restricted
 -- Occupied --                  
-88.920 -88.920 -10.240 -10.239 -10.225 -10.225 -10.205 -10.205
  1 A     1 B     2 A     2 B     3 B     3 A     4 A     4 B                  
-10.204 -10.204  -7.979  -7.979  -5.943  -5.943  -5.940  -5.940
  5 B     5 A     6 A     6 B     7 A     7 B     8 B     8 A                  
 -5.936  -5.936  -0.901  -0.878  -0.772  -0.750  -0.737  -0.706
  9 B     9 A    10 A    10 B    11 A    11 B    12 A    12 B                  
 -0.604  -0.581  -0.551  -0.535  -0.527  -0.478  -0.420  -0.419
 13 A    13 B    14 A    14 B    15 A    15 B    16 B    16 A                  
 -0.408  -0.405  -0.402  -0.379  -0.374  -0.358  -0.343  -0.284
 17 A    17 B    18 A    19 A    18 B    19 B    20 A    21 A                  
 -0.265  -0.258  -0.212
 20 B    22 A    21 B                                                          
 -- Virtual --                   
 -0.059  -0.006  -0.004  -0.001   0.008   0.009   0.017   0.022
 23 A    24 A    22 B    23 B    25 A    24 B    25 B    26 A                  
  0.032   0.037   0.037   0.044   0.051   0.056   0.062   0.065
 27 A    28 A    26 B    29 A    30 A    27 B    28 B    29 B                  
  0.075   0.083   0.085   0.096   0.097   0.102   0.106   0.111
 30 B    31 B    31 A    32 B    32 A    33 A    34 A    35 A                  
  0.117   0.125   0.125   0.132   0.132   0.142   0.144   0.144
 33 B    34 B    36 A    35 B    37 A    36 B    37 B    38 A                  
  0.148   0.153   0.163   0.165   0.169   0.171   0.184   0.190
 39 A    38 B    40 A    39 B    41 A    40 B    42 A    41 B                  
  0.190   0.201   0.208   0.210   0.219   0.220   0.225   0.226
 43 A    42 B    43 B    44 A    44 B    45 A    46 A    45 B                  
  0.250   0.252   0.256   0.269   0.283   0.284   0.285   0.311
 46 B    47 A    47 B    48 A    48 B    49 A    49 B    50 A                  
  0.321   0.323   0.348   0.350   0.353   0.373   0.394   0.406
 50 B    51 A    52 A    53 A    51 B    52 B    54 A    53 B                  
  0.454   0.468   0.508   0.513   0.545   0.555   0.569   0.591
 54 B    55 A    55 B    56 A    57 A    56 B    57 B    58 A                  
  0.607   0.621   0.647   0.649   0.657   0.657   0.665   0.689
 59 A    58 B    60 A    59 B    60 B    61 A    61 B    62 A                  
  0.702   0.716   0.725   0.728   0.742   0.745   0.777   0.786
 63 A    62 B    64 A    63 B    64 B    65 A    66 A    65 B                  
  0.817   0.820   0.823   0.847   0.866   0.921   0.938   0.948
 67 A    66 B    67 B    68 A    69 A    68 B    70 A    69 B                  
  0.951   0.955   0.960   0.969   0.983   0.993   0.996   1.018
 70 B    71 A    72 A    71 B    72 B    73 B    73 A    74 B                  
  1.028   1.042   1.071   1.104   1.110   1.119   1.147   1.166
 74 A    75 A    76 A    77 A    75 B    76 B    77 B    78 A                  
  1.173   1.184   1.218   1.259   1.264   1.321   1.341   1.344
 78 B    79 A    80 A    79 B    81 A    80 B    82 A    81 B                  
  1.351   1.354   1.371   1.471   1.474   1.499   1.543   1.601
 83 A    82 B    84 A    85 A    83 B    84 B    85 B    86 A                  
  1.674   1.691   1.726   1.801   1.862   1.878   1.890   1.914
 87 A    86 B    88 A    89 A    90 A    87 B    88 B    91 A                  
  1.924   1.936   1.953   2.008   2.052   2.068   2.077   2.120
 89 B    92 A    90 B    93 A    91 B    94 A    92 B    93 B                  
  2.172   2.180   2.181   2.217   2.246   2.254   2.338   2.361
 95 A    94 B    96 A    97 A    95 B    96 B    98 A    97 B                  
  2.365   2.418   2.451   2.458   2.468   2.491   2.508   2.527
 99 A    98 B    99 B   100 A   101 A   100 B   102 A   103 A                  
  2.538   2.560   2.586   2.611   2.672   2.691   2.718   2.753
101 B   102 B   104 A   103 B   105 A   106 A   104 B   105 B                  
  2.863   2.874   2.933   2.938   3.144   3.208   3.268   3.276
107 A   106 B   108 A   107 B   108 B   109 A   109 B   110 A                  
  3.399   3.428   3.721   3.743   3.973   3.984   4.235   4.297
111 A   110 B   112 A   111 B   112 B   113 A   114 A   113 B                  
  4.309   4.319   4.409   4.535   4.660   4.716
115 A   114 B   116 A   115 B   117 A   116 B                                  
 --------------------------------------------------------------
 
          Ground-State Mulliken Net Atomic Charges

     Atom                 Charge (a.u.)
  ----------------------------------------
      1 S                    -0.136892
      2 C                     0.019579
      3 C                    -0.362937
      4 C                     0.420345
      5 C                    -0.379212
      6 H                     0.117893
      7 C                    -0.379212
      8 S                    -0.136892
      9 C                     0.420345
     10 C                     0.019579
     11 C                    -0.362937
     12 H                     0.121373
     13 H                     0.199851
     14 H                     0.121373
     15 H                     0.199851
     16 H                     0.117893
  ----------------------------------------
  Sum of atomic charges =    -0.000000

 -----------------------------------------------------------------
                    Cartesian Multipole Moments
 -----------------------------------------------------------------
    Charge (ESU x 10^10)
                 0.0000
    Dipole Moment (Debye)
         X      -0.0000      Y      -0.0000      Z       0.1142
       Tot       0.1142
    Quadrupole Moments (Debye-Ang)
        XX     -61.1641     XY       1.6417     YY     -68.0633
        XZ       0.0000     YZ      -0.0000     ZZ     -78.8592
    Octopole Moments (Debye-Ang^2)
       XXX      -0.0000    XXY      -0.0000    XYY      -0.0000
       YYY      -0.0000    XXZ      -0.3690    XYZ       2.3270
       YYZ       2.5686    XZZ       0.0000    YZZ       0.0000
       ZZZ       1.9693
    Hexadecapole Moments (Debye-Ang^3)
      XXXX   -1890.7391   XXXY     -24.1590   XXYY    -422.0640
      XYYY      18.3961   YYYY    -562.5220   XXXZ      -0.0000
      XXYZ      -0.0000   XYYZ      -0.0000   YYYZ      -0.0000
      XXZZ    -427.2349   XYZZ      -8.1421   YYZZ    -126.1938
      XZZZ      -0.0000   YZZZ       0.0000   ZZZZ    -107.9557
 -----------------------------------------------------------------
Archival summary:
1\1\nid01043\OPT\ProcedureUnspecified\BasisUnspecified\286\FriSep218:24:482016FriSep218:24:482016\0\\#,OPT,ProcedureUnspecified,BasisUnspecified,\\0,1\S\C,1,1.73515\H,2,1.08136,1,119.833\C,2,1.36965,1,111.609,3,-179.983,0\H,4,1.08397,2,123.382,1,179.967,0\C,4,1.42491,2,112.834,1,-0.352559,0\H,6,1.08439,4,123.502,2,-179.181,0\C,6,1.38019,4,113.588,2,0.0371654,0\C,8,1.45252,6,129.047,4,179.958,0\C,9,1.38019,8,129.047,6,170,0\H,10,1.08439,9,122.905,8,-0.818787,0\C,10,1.42491,9,113.588,8,179.958,0\H,12,1.08397,10,123.783,9,179.716,0\C,12,1.36965,10,112.834,9,0.0371654,0\H,14,1.08136,12,128.558,10,179.666,0\S,14,1.73515,12,111.609,10,-0.352559,0\\\@

 Total job time:  47.23s(wall), 52.34s(cpu) 
 Fri Sep  2 18:24:48 2016

        *************************************************************
        *                                                           *
        *  Thank you very much for using Q-Chem.  Have a nice day.  *
        *                                                           *
        *************************************************************


0 sent ACK to 0 
now end server 0 ... 
