srun -N 1 --ntasks-per-node 16 --nodelist nid01044 /global/project/projectdirs/jcesr/qchem/qc44/cnl_qc441/dist/exe/qcprog.cori.exe .pt_dft_100.0.in.64267.qcin.1 /dev/shm/eg_qchem/qchem64267/
Process 0 of 16 is on nid01044 - thread support 0
Process 1 of 16 is on nid01044 - thread support 0
Process 2 of 16 is on nid01044 - thread support 0
Process 3 of 16 is on nid01044 - thread support 0
Process 4 of 16 is on nid01044 - thread support 0
Process 5 of 16 is on nid01044 - thread support 0
Process 6 of 16 is on nid01044 - thread support 0
initial socket setup ...start
Process 15 of 16 is on nid01044 - thread support 0
initial socket setup ...done 
now start server 0 ... 
nid01044 10.128.4
Q-Chem Developer Version! Running on 10.128.4.*
                  Welcome to Q-Chem
     A Quantum Leap Into The Future Of Chemistry


 Q-Chem 4.4, Q-Chem, Inc., Pleasanton, CA (2016)

 Y. Shao,  Z. Gan,  E. Epifanovsky,  A. T. B. Gilbert,  M. Wormit,  
 J. Kussmann,  A. W. Lange,  A. Behn,  J. Deng,  X. Feng,  D. Ghosh,  
 M. Goldey,  P. R. Horn,  L. D. Jacobson,  I. Kaliman,  F.Rob,  
 R. Z. Khaliullin,  T. Kus,  A. Landau,  J. Liu,  E. I. Proynov,  Y. M. Rhee,  
 R. M. Richard,  M. A. Rohrdanz,  R. P. Steele,  E. J. Sundstrom,  
 H. L. Woodcock III,  P. M. Zimmerman,  D. Zuev,  B. Albrecht,  E. Alguire,  
 B. Austin,  S. A. Baeppler,  G. J. O. Beran,  Y. A. Bernard,  E. Berquist,  
 K. Brandhorst,  K. B. Bravaya,  S. T. Brown,  D. Casanova,  C.-M. Chang,  
 Y. Chen,  S. H. Chien,  K. D. Closser,  M. P. Coons,  D. L. Crittenden,  
 S. Dasgupta,  M. Diedenhofen,  R. A. DiStasio Jr.,  H. Do,  A. D. Dutoi,  
 R. G. Edgar,  P.-T. Fang,  S. Fatehi,  Q. Feng,  L. Fusti-Molnar,  
 A. Ghysels,  A. Golubeva-Zadorozhnaya,  J. Gomes,  A. Gunina,  
 M. W. D. Hanson-Heine,  P. H. P. Harbach,  A. W. Hauser,  E. G. Hohenstein,  
 Z. C. Holden,  K. Hui,  T.-C. Jagau,  H. Ji,  B. Kaduk,  K. Khistyaev,  
 Jaehoon Kim,  Jihan Kim,  R. A. King,  P. Klunzinger,  D. Kosenkov,  
 T. Kowalczyk,  C. M. Krauter,  A. Kunitsa,  K. U. Lao,  A. Laurent,  
 K. V. Lawler,  D. Lefrancois,  S. Lehtola,  S. V. Levchenko,  C. Y. Lin,  
 Y.-S. Lin,  F. Liu,  E. Livshits,  R. C. Lochan,  A. Luenser,  P. Manohar,  
 S. F. Manzer,  S.-P. Mao,  Y. Mao,  N. Mardirossian,  A. V. Marenich,  
 L. A. Martinez-Martinez,  S. A. Maurer,  N. J. Mayhall,  J.-M. Mewes,  
 A. F. Morrison,  K. Nanda,  C. M. Oana,  R. Olivares-Amaya,  D. P. O'Neill,  
 J. A. Parkhill,  T. M. Perrine,  R. Peverati,  P. A. Pieniazek,  F. Plasser,  
 A. Prociuk,  D. R. Rehn,  E. Rosta,  N. J. Russ,  N. Sergueev,  
 S. M. Sharada,  S. Sharma,  D. W. Small,  A. Sodt,  T. Stauch,  T. Stein,  
 D. Stuck,  Y.-C. Su,  A. J. W. Thom,  T. Tsuchimochi,  L. Vogt,  O. Vydrov,  
 T. Wang,  M. A. Watson,  J. Wenzel,  A. White,  C. F. Williams,  
 V. Vanovschi,  S. Yeganeh,  S. R. Yost,  Z.-Q. You,  I. Y. Zhang,  X. Zhang,  
 Y. Zhao,  B. R. Brooks,  G. K. L. Chan,  D. M. Chipman,  C. J. Cramer,  
 W. A. Goddard III,  M. S. Gordon,  W. J. Hehre,  A. Klamt,  
 H. F. Schaefer III,  M. W. Schmidt,  C. D. Sherrill,  D. G. Truhlar,  
 A. Warshel,  X. Xu,  A. Aspuru-Guzik,  R. Baer,  A. T. Bell,  N. A. Besley,  
 J.-D. Chai,  A. Dreuw,  B. D. Dunietz,  T. R. Furlani,  S. R. Gwaltney,  
 C.-P. Hsu,  Y. Jung,  J. Kong,  D. S. Lambrecht,  W. Liang,  C. Ochsenfeld,  
 V. A. Rassolov,  L. V. Slipchenko,  J. E. Subotnik,  T. Van Voorhis,  
 J. M. Herbert,  A. I. Krylov,  P. M. W. Gill,  M. Head-Gordon

 Contributors to earlier versions of Q-Chem not listed above: 
 R. D. Adamson,  J. Baker,  E. F. C. Byrd,  A. K. Chakraborty,  C.-L. Cheng,  
 H. Dachsel,  R. J. Doerksen,  G. Hawkins,  A. Heyden,  S. Hirata,  
 G. Kedziora,  F. J. Keil,  C. Kelley,  P. P. Korambath,  W. Kurlancheek,  
 A. M. Lee,  M. S. Lee,  D. Liotard,  I. Lotan,  P. E. Maslen,  N. Nair,  
 D. Neuhauser,  R. Olson,  B. Peters,  J. Ritchie,  N. E. Schultz,  
 N. Shenvi,  A. C. Simmonett,  K. S. Thanthiriwatte,  Q. Wu,  W. Zhang

 Please cite Q-Chem as follows:
 Y. Shao et al., Mol. Phys. 113, 184-215 (2015)
 DOI: 10.1080/00268976.2014.952696

 Q-Chem 4.4.1 for Intel X86 EM64T Linux

 Parts of Q-Chem use Armadillo 5.200.1 (Boston Tea Smuggler).
 http://arma.sourceforge.net/

 Q-Chem begins on Fri Sep  2 18:54:53 2016  

Host: nid01043
0

     Scratch files written to /dev/shm/eg_qchem/qchem64267.0//
 Parallel job on  16  processors

Checking the input file for inconsistencies... 	...done.

--------------------------------------------------------------
User input:
--------------------------------------------------------------
$comment
<SCF Fix Strategy>{
    "current_method_id": 0, 
    "methods": [
        "increase_iter", 
        "rca_diis", 
        "gwh", 
        "gdm", 
        "rca", 
        "core+rca", 
        "fon"
    ], 
    "version": 2.0
}</SCF Fix Strategy>
$end


$molecule
 0  1
 S           1.82267924       -1.19997629        0.28714109
 C           3.20006180       -0.17260711        0.06528466
 C           2.82980603        1.10216298       -0.25610036
 C           1.41909100        1.26345446       -0.34254814
 C           0.71738150        0.10901545       -0.08456145
 H           0.93627498        2.19419272       -0.61095402
 C          -0.71741859       -0.10899254       -0.08455524
 S          -1.69429083        0.35482976        1.29526162
 C          -1.50956199       -0.66828475       -1.05994425
 C          -3.14469935       -0.19195484        0.52116074
 C          -2.88857125       -0.71564936       -0.71397448
 H          -3.65810744       -1.11339395       -1.36230090
 H           4.19429620       -0.57452886        0.18632814
 H           3.53860725        1.89960515       -0.43610218
 H          -4.09299576       -0.09235126        1.02663844
 H          -1.11591594       -1.01219422       -2.00767619
$end


$rem
         jobtype = opt
        exchange = b3lyp
           basis = 6-31++g**
  max_scf_cycles = 200
      mem_static = 100
       mem_total = 1500
   scf_algorithm = diis
       scf_guess = sad
$end


$opt
CONSTRAINT
tors 4 5 7 9 100.0
ENDCONSTRAINT
$end

--------------------------------------------------------------
 Atom   8: ( -1.7445242555,  0.9525421880,  0.7460660289)
         ->( -1.7445243975,  0.9525422789,  0.7460659196)
 Atom  10: ( -3.1769983917,  0.1507617102,  0.1919393642)
         ->( -3.1769983922,  0.1507615153,  0.1919393223)
 Atom  11: ( -2.8823492623, -0.8634495929, -0.6740709642)
         ->( -2.8823491200, -0.8634498516, -0.6740708152)
 Atom   9: ( -1.4867487096, -0.9976969131, -0.9146572928)
         ->( -1.4867485895, -0.9976967077, -0.9146575919)
 Atom   7: ( -0.7206987247, -0.0844872409, -0.2284370816)
         ->( -0.7206986635, -0.0844871693, -0.2284370499)
 Atom  16: ( -1.0613588547, -1.7275206959, -1.5912867954)
         ->( -1.0613586801, -1.7275202400, -1.5912873068)
 Atom  14: (  3.6351584867,  1.4892280162, -1.1349326006)
         ->(  3.6351587215,  1.4892275680, -1.1349328712)
 Atom  15: ( -4.1443226594,  0.4785872353,  0.5405205540)
         ->( -4.1443227348,  0.4785868339,  0.5405204981)
 ----------------------------------------------------------------
             Standard Nuclear Orientation (Angstroms)
    I     Atom           X                Y                Z
 ----------------------------------------------------------------
    1      S       1.7445243975    -0.9525422789     0.7460659196
    2      C       3.1769983922    -0.1507615153     0.1919393223
    3      C       2.8823491200     0.8634498516    -0.6740708152
    4      C       1.4867485895     0.9976967077    -0.9146575919
    5      C       0.7206986635     0.0844871693    -0.2284370499
    6      H       1.0613586801     1.7275202400    -1.5912873068
    7      C      -0.7206986635    -0.0844871693    -0.2284370499
    8      S      -1.7445243975     0.9525422789     0.7460659196
    9      C      -1.4867485895    -0.9976967077    -0.9146575919
   10      C      -3.1769983922     0.1507615153     0.1919393223
   11      C      -2.8823491200    -0.8634498516    -0.6740708152
   12      H      -3.6351587215    -1.4892275680    -1.1349328712
   13      H       4.1443227348    -0.4785868339     0.5405204981
   14      H       3.6351587215     1.4892275680    -1.1349328712
   15      H      -4.1443227348     0.4785868339     0.5405204981
   16      H      -1.0613586801    -1.7275202400    -1.5912873068
 ----------------------------------------------------------------
 Molecular Point Group                 C2    NOp =  2
 Largest Abelian Subgroup              C2    NOp =  2
 Nuclear Repulsion Energy =   629.5981843236 hartrees
 There are       43 alpha and       43 beta electrons
 Requested basis set is 6-31++G(d,p)
 There are 76 shells and 234 basis functions

 Total QAlloc Memory Limit   1500 MB
 Mega-Array Size        98 MB
 MEM_STATIC part       100 MB
 A cutoff of  1.0D-11 yielded   2488 shell pairs
 There are     24540 function pairs
 
 -------------------------------------------------------
 OpenMP Integral Computing Module                       
 Release: version 1.0, May 2013, Q-Chem Inc. Pittsburgh 
 -------------------------------------------------------
 Integral Job Info:
 Integral job number is                      11
 Integral operator is                         1
 short-range coefficients                     0
 long-range coefficients              100000000
 Omega coefficients                           0
 if combine SR and LR in K                    0
 Integral screening is                        0
 Integral computing path is                   2
 max size of driver memory is            800000
 size of driver memory is                593474
 size of scratch memory is             15166112
 max col of scratch BK array               1296
 max len of scratch array in speh3          155
 max len of scratch index in speh4           18
 max int batch size is                      520
 min int batch size is                       52
 fixed nKL is                                52
 max L of basis functions is                  2
 order of int derivative is                   0
 number of shells is                         76
 number of basis is                         234
 number of cartesian basis is               234
 number of contracted shell pairs          2488
 number of primitive shell pairs           8035
 maxK2 (contraction) of shell pair           36
 max number of K2 of shell pair               1
 max number of CS2 of shell pair            260
 max number of PS2 of shell pair           1488
 mem total for path MDJ                   51378
 -------------------------------------------------------
 Smallest overlap matrix eigenvalue = 1.07E-06

 Q-Chem warning in module /project/projectdirs/jcesr/qchem/qc44/cnl_qc441/compile/cori/qc_src/stvman/mkSTV.C, line 257:

 Overlap eigenvalue is smaller than square root of threshold


 Scale SEOQF with 1.000000e-01/1.000000e-01/1.000000e-01

 Standard Electronic Orientation quadrupole field applied
 Nucleus-field energy     =     0.0000000146 hartrees
 Guess from superposition of atomic densities
 Warning:  Energy on first SCF cycle will be non-variational
 A restricted hybrid HF-DFT SCF calculation will be
 performed using Pulay DIIS extrapolation
 Exchange:     0.2000 Hartree-Fock + 0.0800 Slater + 0.7200 B88
 Correlation:  0.1900 VWN1RPA + 0.8100 LYP
 Using SG-1 standard quadrature grid
 SCF converges when DIIS error is below 1.0E-08
 ---------------------------------------
  Cycle       Energy         DIIS Error
 ---------------------------------------
    1   -1107.2299085930      4.44E-02
    2   -1087.9815336316      1.20E-01
    3   -1083.0515704773      2.13E-01
    4   -1069.0101577625      1.64E-01
    5    -768.7844371758      3.07E+00
    6   -1030.7078184074      2.56E-01
    7   -1119.0252724616      9.27E-02
    8   -1363.0119015179      5.97E-01
    9     200.1689176355      4.03E+00
   10    -932.9307169268      3.88E-01
   11   -1424.7898298983      6.15E-01
   12   -1527.1205124926      7.74E-01
   13    -705.2676188364      5.06E-01
   14    -917.5442042173      2.68E-01
   15   -1780.9282695562      1.15E+00
   16   -1254.4199628651      1.04E+00
   17   -1200.2866154178      2.42E-01
   18   -1095.9457219287      5.82E-02
   19   -1186.0663091517      2.90E-01
   20   -1101.7435826664      1.62E-02
   21   -1096.3437690991      2.80E-02
   22   -1103.5640994159      7.41E-03
   23   -1104.7406763773      3.47E-03
   24   -1104.7979228789      2.36E-03
   25   -1104.8355140735      4.63E-04
   26   -1104.8365932368      2.53E-04
   27   -1104.8370087809      1.07E-04
   28   -1104.8370982224      2.11E-05
   29   -1104.8371025161      4.34E-06
   30   -1104.8371028010      1.75E-06
   31   -1104.8371045038      4.21E-07
   32   -1104.8371055570      1.13E-07
   33   -1104.8371062626      7.84E-08
   34   -1104.8371058211      3.62E-08
   35   -1104.8371057134      3.50E-08
   36   -1104.8371055884      2.94E-08
   37   -1104.8371056895      8.52E-09 Convergence criterion met
 ---------------------------------------
 SCF time:  CPU 16.02 s  wall 13.68 s
 SCF   energy in the final basis set = -1104.8371056895
 Total energy in the final basis set = -1104.8371056895
 
 --------------------------------------------------------------
             Orbital Energies (a.u.) and Symmetries
 --------------------------------------------------------------
 
 Alpha MOs, Restricted
 -- Occupied --                  
-88.918 -88.918 -10.234 -10.234 -10.223 -10.223 -10.203 -10.203
  1 B     1 A     2 A     2 B     3 B     3 A     4 A     4 B                  
-10.202 -10.202  -7.978  -7.978  -5.942  -5.942  -5.938  -5.938
  5 B     5 A     6 B     6 A     7 B     7 A     8 B     8 A                  
 -5.935  -5.935  -0.899  -0.878  -0.771  -0.743  -0.741  -0.705
  9 B     9 A    10 A    10 B    11 A    11 B    12 A    12 B                  
 -0.603  -0.569  -0.563  -0.535  -0.524  -0.478  -0.418  -0.416
 13 A    13 B    14 A    14 B    15 A    15 B    16 A    16 B                  
 -0.412  -0.406  -0.394  -0.375  -0.374  -0.351  -0.349  -0.264
 17 A    17 B    18 A    19 A    18 B    19 B    20 A    21 A                  
 -0.257  -0.249  -0.237
 20 B    22 A    21 B                                                          
 -- Virtual --                   
 -0.038  -0.029  -0.005  -0.003   0.007   0.012   0.021   0.022
 23 A    22 B    24 A    23 B    25 A    24 B    25 B    26 A                  
  0.027   0.035   0.036   0.041   0.045   0.051   0.065   0.069
 27 A    28 A    26 B    27 B    29 A    28 B    29 B    30 A                  
  0.070   0.073   0.082   0.102   0.103   0.108   0.109   0.111
 30 B    31 A    32 A    31 B    33 A    34 A    35 A    32 B                  
  0.116   0.120   0.124   0.130   0.132   0.133   0.137   0.142
 33 B    34 B    35 B    36 A    36 B    37 A    38 A    37 B                  
  0.148   0.150   0.156   0.161   0.170   0.175   0.179   0.180
 38 B    39 A    40 A    39 B    41 A    42 A    40 B    41 B                  
  0.187   0.190   0.193   0.208   0.213   0.219   0.222   0.226
 43 A    42 B    43 B    44 A    44 B    45 A    45 B    46 A                  
  0.240   0.249   0.260   0.269   0.275   0.275   0.291   0.297
 47 A    46 B    47 B    48 A    49 A    48 B    50 A    49 B                  
  0.310   0.317   0.330   0.335   0.359   0.361   0.374   0.392
 50 B    51 B    51 A    52 A    53 A    52 B    53 B    54 A                  
  0.432   0.470   0.478   0.496   0.515   0.534   0.543   0.579
 54 B    55 A    55 B    56 A    57 A    56 B    57 B    58 A                  
  0.581   0.588   0.621   0.631   0.642   0.669   0.671   0.681
 58 B    59 A    59 B    60 A    60 B    61 B    61 A    62 A                  
  0.698   0.701   0.725   0.727   0.741   0.752   0.768   0.777
 63 A    62 B    63 B    64 A    64 B    65 B    65 A    66 B                  
  0.795   0.803   0.814   0.827   0.842   0.891   0.914   0.939
 66 A    67 B    67 A    68 A    68 B    69 A    69 B    70 A                  
  0.939   0.956   0.957   0.969   0.975   0.987   0.992   1.015
 70 B    71 B    71 A    72 B    72 A    73 A    73 B    74 B                  
  1.019   1.025   1.032   1.077   1.077   1.092   1.107   1.112
 75 B    74 A    75 A    76 B    76 A    77 A    77 B    78 A                  
  1.133   1.184   1.219   1.220   1.255   1.278   1.324   1.344
 78 B    79 A    79 B    80 A    80 B    81 A    81 B    82 A                  
  1.352   1.354   1.364   1.396   1.462   1.477   1.478   1.523
 83 A    82 B    83 B    84 A    84 B    85 A    85 B    86 A                  
  1.567   1.692   1.696   1.779   1.817   1.856   1.879   1.887
 86 B    87 A    87 B    88 A    89 A    88 B    90 A    89 B                  
  1.920   1.928   1.970   1.989   2.011   2.021   2.066   2.117
 90 B    91 A    92 A    91 B    93 A    92 B    93 B    94 A                  
  2.123   2.156   2.184   2.203   2.204   2.266   2.272   2.348
 95 A    94 B    95 B    96 B    96 A    97 B    97 A    98 A                  
  2.367   2.371   2.430   2.440   2.471   2.479   2.499   2.510
 99 A    98 B    99 B   100 A   101 A   100 B   101 B   102 A                  
  2.516   2.528   2.585   2.594   2.610   2.653   2.706   2.707
102 B   103 A   103 B   104 A   104 B   105 A   106 A   105 B                  
  2.759   2.846   2.862   2.891   2.943   3.173   3.183   3.275
106 B   107 A   107 B   108 A   108 B   109 B   109 A   110 B                  
  3.278   3.408   3.433   3.730   3.749   3.971   3.971   4.285
110 A   111 A   111 B   112 A   112 B   113 B   113 A   114 A                  
  4.307   4.320   4.332   4.439   4.537   4.664   4.717
115 A   114 B   115 B   116 A   116 B   117 A   117 B                          
 
 Beta MOs, Restricted
 -- Occupied --                  
-88.918 -88.918 -10.234 -10.234 -10.223 -10.223 -10.203 -10.203
  1 B     1 A     2 A     2 B     3 B     3 A     4 A     4 B                  
-10.202 -10.202  -7.978  -7.978  -5.942  -5.942  -5.938  -5.938
  5 B     5 A     6 B     6 A     7 B     7 A     8 B     8 A                  
 -5.935  -5.935  -0.899  -0.878  -0.771  -0.743  -0.741  -0.705
  9 B     9 A    10 A    10 B    11 A    11 B    12 A    12 B                  
 -0.603  -0.569  -0.563  -0.535  -0.524  -0.478  -0.418  -0.416
 13 A    13 B    14 A    14 B    15 A    15 B    16 A    16 B                  
 -0.412  -0.406  -0.394  -0.375  -0.374  -0.351  -0.349  -0.264
 17 A    17 B    18 A    19 A    18 B    19 B    20 A    21 A                  
 -0.257  -0.249  -0.237
 20 B    22 A    21 B                                                          
 -- Virtual --                   
 -0.038  -0.029  -0.005  -0.003   0.007   0.012   0.021   0.022
 23 A    22 B    24 A    23 B    25 A    24 B    25 B    26 A                  
  0.027   0.035   0.036   0.041   0.045   0.051   0.065   0.069
 27 A    28 A    26 B    27 B    29 A    28 B    29 B    30 A                  
  0.070   0.073   0.082   0.102   0.103   0.108   0.109   0.111
 30 B    31 A    32 A    31 B    33 A    34 A    35 A    32 B                  
  0.116   0.120   0.124   0.130   0.132   0.133   0.137   0.142
 33 B    34 B    35 B    36 A    36 B    37 A    38 A    37 B                  
  0.148   0.150   0.156   0.161   0.170   0.175   0.179   0.180
 38 B    39 A    40 A    39 B    41 A    42 A    40 B    41 B                  
  0.187   0.190   0.193   0.208   0.213   0.219   0.222   0.226
 43 A    42 B    43 B    44 A    44 B    45 A    45 B    46 A                  
  0.240   0.249   0.260   0.269   0.275   0.275   0.291   0.297
 47 A    46 B    47 B    48 A    49 A    48 B    50 A    49 B                  
  0.310   0.317   0.330   0.335   0.359   0.361   0.374   0.392
 50 B    51 B    51 A    52 A    53 A    52 B    53 B    54 A                  
  0.432   0.470   0.478   0.496   0.515   0.534   0.543   0.579
 54 B    55 A    55 B    56 A    57 A    56 B    57 B    58 A                  
  0.581   0.588   0.621   0.631   0.642   0.669   0.671   0.681
 58 B    59 A    59 B    60 A    60 B    61 B    61 A    62 A                  
  0.698   0.701   0.725   0.727   0.741   0.752   0.768   0.777
 63 A    62 B    63 B    64 A    64 B    65 B    65 A    66 B                  
  0.795   0.803   0.814   0.827   0.842   0.891   0.914   0.939
 66 A    67 B    67 A    68 A    68 B    69 A    69 B    70 A                  
  0.939   0.956   0.957   0.969   0.975   0.987   0.992   1.015
 70 B    71 B    71 A    72 B    72 A    73 A    73 B    74 B                  
  1.019   1.025   1.032   1.077   1.077   1.092   1.107   1.112
 75 B    74 A    75 A    76 B    76 A    77 A    77 B    78 A                  
  1.133   1.184   1.219   1.220   1.255   1.278   1.324   1.344
 78 B    79 A    79 B    80 A    80 B    81 A    81 B    82 A                  
  1.352   1.354   1.364   1.396   1.462   1.477   1.478   1.523
 83 A    82 B    83 B    84 A    84 B    85 A    85 B    86 A                  
  1.567   1.692   1.696   1.779   1.817   1.856   1.879   1.887
 86 B    87 A    87 B    88 A    89 A    88 B    90 A    89 B                  
  1.920   1.928   1.970   1.989   2.011   2.021   2.066   2.117
 90 B    91 A    92 A    91 B    93 A    92 B    93 B    94 A                  
  2.123   2.156   2.184   2.203   2.204   2.266   2.272   2.348
 95 A    94 B    95 B    96 B    96 A    97 B    97 A    98 A                  
  2.367   2.371   2.430   2.440   2.471   2.479   2.499   2.510
 99 A    98 B    99 B   100 A   101 A   100 B   101 B   102 A                  
  2.516   2.528   2.585   2.594   2.610   2.653   2.706   2.707
102 B   103 A   103 B   104 A   104 B   105 A   106 A   105 B                  
  2.759   2.846   2.862   2.891   2.943   3.173   3.183   3.275
106 B   107 A   107 B   108 A   108 B   109 B   109 A   110 B                  
  3.278   3.408   3.433   3.730   3.749   3.971   3.971   4.285
110 A   111 A   111 B   112 A   112 B   113 B   113 A   114 A                  
  4.307   4.320   4.332   4.439   4.537   4.664   4.717
115 A   114 B   115 B   116 A   116 B   117 A   117 B                          
 --------------------------------------------------------------
 
          Ground-State Mulliken Net Atomic Charges

     Atom                 Charge (a.u.)
  ----------------------------------------
      1 S                     0.062785
      2 C                    -0.048614
      3 C                    -0.373751
      4 C                     0.297109
      5 C                    -0.374191
      6 H                     0.131542
      7 C                    -0.374190
      8 S                     0.062785
      9 C                     0.297109
     10 C                    -0.048614
     11 C                    -0.373751
     12 H                     0.118483
     13 H                     0.186636
     14 H                     0.118483
     15 H                     0.186636
     16 H                     0.131542
  ----------------------------------------
  Sum of atomic charges =     0.000000

 -----------------------------------------------------------------
                    Cartesian Multipole Moments
 -----------------------------------------------------------------
    Charge (ESU x 10^10)
                 0.0000
    Dipole Moment (Debye)
         X       0.0000      Y       0.0000      Z      -0.7104
       Tot       0.7104
    Quadrupole Moments (Debye-Ang)
        XX     -61.1833     XY       1.4449     YY     -72.4495
        XZ       0.0000     YZ       0.0000     ZZ     -73.9147
    Octopole Moments (Debye-Ang^2)
       XXX       0.0000    XXY       0.0000    XYY       0.0000
       YYY       0.0000    XXZ       5.8971    XYZ     -13.5833
       YYZ      -5.5386    XZZ       0.0000    YZZ       0.0000
       ZZZ       1.6016
    Hexadecapole Moments (Debye-Ang^3)
      XXXX   -1877.5809   XXXY     -10.1126   XXYY    -415.9006
      XYYY       1.9208   YYYY    -397.4390   XXXZ       0.0000
      XXYZ       0.0000   XYYZ      -0.0000   YYYZ      -0.0000
      XXZZ    -416.9495   XYZZ       4.7294   YYZZ    -103.6621
      XZZZ      -0.0000   YZZZ      -0.0000   ZZZZ    -312.0781
 -----------------------------------------------------------------
 Calculating analytic gradient of the SCF energy
 Gradient of SCF Energy
            1           2           3           4           5           6
    1  -0.0013707   0.0009569  -0.0020046   0.0015503  -0.0085525   0.0014716
    2   0.0012332   0.0032211  -0.0018901  -0.0001164  -0.0003098  -0.0010657
    3   0.0003206  -0.0037192   0.0021947   0.0006520   0.0001387   0.0001004
            7           8           9          10          11          12
    1   0.0085525   0.0013707  -0.0015503  -0.0009569   0.0020046   0.0010892
    2   0.0003098  -0.0012332   0.0001164  -0.0032211   0.0018901   0.0009026
    3   0.0001387   0.0003206   0.0006520  -0.0037192   0.0021947   0.0007401
           13          14          15          16
    1  -0.0018826  -0.0010892   0.0018826  -0.0014716
    2   0.0000085  -0.0009026  -0.0000085   0.0010657
    3  -0.0004272   0.0007401  -0.0004272   0.0001004
 Max gradient component =       8.553E-03
 RMS gradient           =       2.298E-03
 Gradient time:  CPU 1.92 s  wall 1.90 s
 Geometry Optimization Parameters
   NAtoms,    NIC,     NZ,  NCons,   NDum,   NFix, NCnnct, MaxDiis
       16     111       0       1       0       0       0       0


** CONSTRAINED OPTIMIZATION IN DELOCALIZED INTERNAL COORDINATES **
   Searching for a Minimum

   Optimization Cycle:   1

                       Coordinates (Angstroms)
     ATOM                X               Y               Z
      1  S         1.7445243975   -0.9525422789    0.7460659196
      2  C         3.1769983922   -0.1507615153    0.1919393223
      3  C         2.8823491200    0.8634498516   -0.6740708152
      4  C         1.4867485895    0.9976967077   -0.9146575919
      5  C         0.7206986635    0.0844871693   -0.2284370499
      6  H         1.0613586801    1.7275202400   -1.5912873068
      7  C        -0.7206986635   -0.0844871693   -0.2284370499
      8  S        -1.7445243975    0.9525422789    0.7460659196
      9  C        -1.4867485895   -0.9976967077   -0.9146575919
     10  C        -3.1769983922    0.1507615153    0.1919393223
     11  C        -2.8823491200   -0.8634498516   -0.6740708152
     12  H        -3.6351587215   -1.4892275680   -1.1349328712
     13  H         4.1443227348   -0.4785868339    0.5405204981
     14  H         3.6351587215    1.4892275680   -1.1349328712
     15  H        -4.1443227348    0.4785868339    0.5405204981
     16  H        -1.0613586801   -1.7275202400   -1.5912873068
   Point Group: c2    Number of degrees of freedom:    22


   Energy is  -1104.837105690

              Constraints and their Current Values
                                        Value     Constraint
   Dihedral:        4   5   7   9      100.000      100.000

 Attempting to Generate Delocalized Internal Coordinates

 21 Hessian modes will be used to form the next step
  Hessian Eigenvalues:
     0.045000    0.045000    0.045000    0.045002    0.045004    0.045013
     0.159937    0.159990    0.160000    0.221280    0.237833    0.249997
     0.296078    0.314672    0.357149    0.357543    0.360899    0.380793
     0.408411    0.470750    0.505998

 Minimum Search - Taking Simple RFO Step
 Searching for Lamda that Minimizes Along All modes
 Value Taken    Lamda =  -0.00067821
 Step Taken.  Stepsize is  0.059239

                             Maximum     Tolerance    Cnvgd?
         Gradient           0.008750      0.000300      NO
         Displacement       0.036645      0.001200      NO
         Energy change     *********      0.000001      NO


 New Cartesian Coordinates Obtained by Inverse Iteration

 Displacement from previous Coordinates is:  0.100368
 ----------------------------------------------------------------
             Standard Nuclear Orientation (Angstroms)
    I     Atom           X                Y                Z
 ----------------------------------------------------------------
    1      S       1.7592545234    -0.9614392099     0.7392294494
    2      C       3.1910054981    -0.1527185398     0.1930161017
    3      C       2.8941867344     0.8636132864    -0.6774904392
    4      C       1.4929918771     0.9974376674    -0.9139718032
    5      C       0.7283717136     0.0834921860    -0.2251358959
    6      H       1.0577363586     1.7314094846    -1.5830218408
    7      C      -0.7283717136    -0.0834921860    -0.2251358959
    8      S      -1.7592545234     0.9614392099     0.7392294494
    9      C      -1.4929918771    -0.9974376674    -0.9139718032
   10      C      -3.1910054981     0.1527185398     0.1930161017
   11      C      -2.8941867344    -0.8636132864    -0.6774904392
   12      H      -3.6468906288    -1.4932697273    -1.1387849952
   13      H       4.1626388982    -0.4769096021     0.5412995280
   14      H       3.6468906288     1.4932697273    -1.1387849952
   15      H      -4.1626388982     0.4769096021     0.5412995280
   16      H      -1.0577363586    -1.7314094846    -1.5830218408
 ----------------------------------------------------------------
 Molecular Point Group                 C2    NOp =  2
 Largest Abelian Subgroup              C2    NOp =  2
 Nuclear Repulsion Energy =   627.5629326200 hartrees
 There are       43 alpha and       43 beta electrons
 Applying Cartesian multipole field
    Component          Value
    ---------          -----
     (2,0,0)        1.00000E-11
     (0,2,0)        2.00000E-11
     (0,0,2)       -3.00000E-11
 Nucleus-field energy     =     0.0000000148 hartrees
 Requested basis set is 6-31++G(d,p)
 There are 76 shells and 234 basis functions
 A cutoff of  1.0D-11 yielded   2486 shell pairs
 There are     24532 function pairs
 Smallest overlap matrix eigenvalue = 1.18E-06

 Q-Chem warning in module /project/projectdirs/jcesr/qchem/qc44/cnl_qc441/compile/cori/qc_src/stvman/mkSTV.C, line 257:

 Overlap eigenvalue is smaller than square root of threshold

 Guess MOs from SCF MO coefficient file
 Reading MOs from coefficient file
 Reading MOs from coefficient file
 A restricted hybrid HF-DFT SCF calculation will be
 performed using Pulay DIIS extrapolation
 Exchange:     0.2000 Hartree-Fock + 0.0800 Slater + 0.7200 B88
 Correlation:  0.1900 VWN1RPA + 0.8100 LYP
 Using SG-1 standard quadrature grid
 SCF converges when DIIS error is below 1.0E-08
 Geometry optimization detected.  Setting ReadMinima to 0
 Setting SaveMinima to 0
 ---------------------------------------
  Cycle       Energy         DIIS Error
 ---------------------------------------
    1   -1104.8170596048      6.83E-04
    2   -1104.8373378745      1.13E-04
    3   -1104.8369638448      2.48E-04
    4   -1104.8374455624      2.53E-05
    5   -1104.8374492696      1.07E-05
    6   -1104.8374500789      2.76E-06
    7   -1104.8374501353      9.58E-07
    8   -1104.8374501402      2.69E-07
    9   -1104.8374501385      5.09E-08
   10   -1104.8374501390      2.31E-08
   11   -1104.8374501385      4.36E-09 Convergence criterion met
 ---------------------------------------
 SCF time:  CPU 5.75 s  wall 5.10 s
 SCF   energy in the final basis set = -1104.8374501385
 Total energy in the final basis set = -1104.8374501385
 
 --------------------------------------------------------------
             Orbital Energies (a.u.) and Symmetries
 --------------------------------------------------------------
 
 Alpha MOs, Restricted
 -- Occupied --                  
-88.919 -88.919 -10.236 -10.236 -10.225 -10.225 -10.204 -10.204
  1 B     1 A     2 A     2 B     3 B     3 A     4 A     4 B                  
-10.203 -10.203  -7.978  -7.978  -5.942  -5.942  -5.939  -5.939
  5 B     5 A     6 B     6 A     7 B     7 A     8 B     8 A                  
 -5.935  -5.935  -0.898  -0.877  -0.768  -0.742  -0.740  -0.705
  9 B     9 A    10 A    10 B    11 A    11 B    12 A    12 B                  
 -0.601  -0.569  -0.563  -0.534  -0.523  -0.478  -0.417  -0.415
 13 A    13 B    14 A    14 B    15 A    15 B    16 A    16 B                  
 -0.412  -0.406  -0.394  -0.375  -0.374  -0.351  -0.349  -0.264
 17 A    17 B    18 A    19 A    18 B    19 B    20 A    21 A                  
 -0.257  -0.249  -0.237
 20 B    22 A    21 B                                                          
 -- Virtual --                   
 -0.038  -0.029  -0.005  -0.003   0.007   0.012   0.020   0.021
 23 A    22 B    24 A    23 B    25 A    24 B    25 B    26 A                  
  0.027   0.034   0.036   0.040   0.045   0.050   0.065   0.068
 27 A    28 A    26 B    27 B    29 A    28 B    29 B    30 A                  
  0.070   0.072   0.082   0.101   0.102   0.107   0.109   0.110
 30 B    31 A    32 A    31 B    33 A    34 A    35 A    32 B                  
  0.115   0.119   0.123   0.129   0.131   0.133   0.136   0.142
 33 B    34 B    35 B    36 A    36 B    37 A    38 A    37 B                  
  0.147   0.149   0.155   0.161   0.169   0.175   0.177   0.179
 38 B    39 A    40 A    39 B    41 A    42 A    40 B    41 B                  
  0.187   0.190   0.192   0.208   0.212   0.219   0.222   0.226
 43 A    42 B    43 B    44 A    44 B    45 A    45 B    46 A                  
  0.239   0.248   0.260   0.269   0.273   0.274   0.290   0.296
 47 A    46 B    47 B    48 A    48 B    49 A    50 A    49 B                  
  0.308   0.316   0.328   0.333   0.358   0.360   0.372   0.390
 50 B    51 B    51 A    52 A    53 A    52 B    53 B    54 A                  
  0.431   0.470   0.474   0.496   0.515   0.531   0.541   0.579
 54 B    55 A    55 B    56 A    57 A    56 B    57 B    58 A                  
  0.579   0.589   0.620   0.629   0.642   0.668   0.671   0.680
 58 B    59 A    59 B    60 A    60 B    61 B    61 A    62 A                  
  0.697   0.699   0.724   0.726   0.737   0.749   0.766   0.777
 63 A    62 B    63 B    64 A    64 B    65 B    65 A    66 B                  
  0.794   0.801   0.812   0.827   0.841   0.889   0.912   0.940
 66 A    67 B    67 A    68 A    68 B    69 A    69 B    70 A                  
  0.941   0.955   0.957   0.967   0.973   0.985   0.993   1.014
 70 B    71 B    71 A    72 B    72 A    73 A    73 B    74 B                  
  1.018   1.023   1.029   1.075   1.077   1.091   1.106   1.111
 75 B    74 A    75 A    76 B    76 A    77 A    77 B    78 A                  
  1.130   1.182   1.216   1.217   1.252   1.278   1.322   1.346
 78 B    79 A    79 B    80 A    80 B    81 A    81 B    82 A                  
  1.352   1.353   1.363   1.393   1.459   1.474   1.475   1.521
 82 B    83 A    83 B    84 A    84 B    85 A    85 B    86 A                  
  1.561   1.691   1.695   1.774   1.813   1.858   1.874   1.882
 86 B    87 A    87 B    88 A    89 A    88 B    90 A    89 B                  
  1.916   1.922   1.964   1.984   2.006   2.018   2.061   2.115
 90 B    91 A    92 A    91 B    93 A    92 B    93 B    94 A                  
  2.121   2.152   2.182   2.199   2.199   2.258   2.266   2.341
 95 A    94 B    95 B    96 B    96 A    97 B    97 A    98 A                  
  2.366   2.369   2.427   2.434   2.467   2.475   2.494   2.508
 99 A    98 B    99 B   100 A   101 A   100 B   101 B   102 A                  
  2.513   2.523   2.579   2.587   2.605   2.646   2.700   2.701
102 B   103 A   103 B   104 A   104 B   105 A   106 A   105 B                  
  2.751   2.837   2.854   2.881   2.933   3.164   3.173   3.269
106 B   107 A   107 B   108 A   108 B   109 B   109 A   110 B                  
  3.271   3.401   3.425   3.721   3.740   3.969   3.970   4.281
110 A   111 A   111 B   112 A   112 B   113 A   113 B   114 A                  
  4.303   4.320   4.329   4.435   4.535   4.659   4.709
115 A   114 B   115 B   116 A   116 B   117 A   117 B                          
 
 Beta MOs, Restricted
 -- Occupied --                  
-88.919 -88.919 -10.236 -10.236 -10.225 -10.225 -10.204 -10.204
  1 B     1 A     2 A     2 B     3 B     3 A     4 A     4 B                  
-10.203 -10.203  -7.978  -7.978  -5.942  -5.942  -5.939  -5.939
  5 B     5 A     6 B     6 A     7 B     7 A     8 B     8 A                  
 -5.935  -5.935  -0.898  -0.877  -0.768  -0.742  -0.740  -0.705
  9 B     9 A    10 A    10 B    11 A    11 B    12 A    12 B                  
 -0.601  -0.569  -0.563  -0.534  -0.523  -0.478  -0.417  -0.415
 13 A    13 B    14 A    14 B    15 A    15 B    16 A    16 B                  
 -0.412  -0.406  -0.394  -0.375  -0.374  -0.351  -0.349  -0.264
 17 A    17 B    18 A    19 A    18 B    19 B    20 A    21 A                  
 -0.257  -0.249  -0.237
 20 B    22 A    21 B                                                          
 -- Virtual --                   
 -0.038  -0.029  -0.005  -0.003   0.007   0.012   0.020   0.021
 23 A    22 B    24 A    23 B    25 A    24 B    25 B    26 A                  
  0.027   0.034   0.036   0.040   0.045   0.050   0.065   0.068
 27 A    28 A    26 B    27 B    29 A    28 B    29 B    30 A                  
  0.070   0.072   0.082   0.101   0.102   0.107   0.109   0.110
 30 B    31 A    32 A    31 B    33 A    34 A    35 A    32 B                  
  0.115   0.119   0.123   0.129   0.131   0.133   0.136   0.142
 33 B    34 B    35 B    36 A    36 B    37 A    38 A    37 B                  
  0.147   0.149   0.155   0.161   0.169   0.175   0.177   0.179
 38 B    39 A    40 A    39 B    41 A    42 A    40 B    41 B                  
  0.187   0.190   0.192   0.208   0.212   0.219   0.222   0.226
 43 A    42 B    43 B    44 A    44 B    45 A    45 B    46 A                  
  0.239   0.248   0.260   0.269   0.273   0.274   0.290   0.296
 47 A    46 B    47 B    48 A    48 B    49 A    50 A    49 B                  
  0.308   0.316   0.328   0.333   0.358   0.360   0.372   0.390
 50 B    51 B    51 A    52 A    53 A    52 B    53 B    54 A                  
  0.431   0.470   0.474   0.496   0.515   0.531   0.541   0.579
 54 B    55 A    55 B    56 A    57 A    56 B    57 B    58 A                  
  0.579   0.589   0.620   0.629   0.642   0.668   0.671   0.680
 58 B    59 A    59 B    60 A    60 B    61 B    61 A    62 A                  
  0.697   0.699   0.724   0.726   0.737   0.749   0.766   0.777
 63 A    62 B    63 B    64 A    64 B    65 B    65 A    66 B                  
  0.794   0.801   0.812   0.827   0.841   0.889   0.912   0.940
 66 A    67 B    67 A    68 A    68 B    69 A    69 B    70 A                  
  0.941   0.955   0.957   0.967   0.973   0.985   0.993   1.014
 70 B    71 B    71 A    72 B    72 A    73 A    73 B    74 B                  
  1.018   1.023   1.029   1.075   1.077   1.091   1.106   1.111
 75 B    74 A    75 A    76 B    76 A    77 A    77 B    78 A                  
  1.130   1.182   1.216   1.217   1.252   1.278   1.322   1.346
 78 B    79 A    79 B    80 A    80 B    81 A    81 B    82 A                  
  1.352   1.353   1.363   1.393   1.459   1.474   1.475   1.521
 82 B    83 A    83 B    84 A    84 B    85 A    85 B    86 A                  
  1.561   1.691   1.695   1.774   1.813   1.858   1.874   1.882
 86 B    87 A    87 B    88 A    89 A    88 B    90 A    89 B                  
  1.916   1.922   1.964   1.984   2.006   2.018   2.061   2.115
 90 B    91 A    92 A    91 B    93 A    92 B    93 B    94 A                  
  2.121   2.152   2.182   2.199   2.199   2.258   2.266   2.341
 95 A    94 B    95 B    96 B    96 A    97 B    97 A    98 A                  
  2.366   2.369   2.427   2.434   2.467   2.475   2.494   2.508
 99 A    98 B    99 B   100 A   101 A   100 B   101 B   102 A                  
  2.513   2.523   2.579   2.587   2.605   2.646   2.700   2.701
102 B   103 A   103 B   104 A   104 B   105 A   106 A   105 B                  
  2.751   2.837   2.854   2.881   2.933   3.164   3.173   3.269
106 B   107 A   107 B   108 A   108 B   109 B   109 A   110 B                  
  3.271   3.401   3.425   3.721   3.740   3.969   3.970   4.281
110 A   111 A   111 B   112 A   112 B   113 A   113 B   114 A                  
  4.303   4.320   4.329   4.435   4.535   4.659   4.709
115 A   114 B   115 B   116 A   116 B   117 A   117 B                          
 --------------------------------------------------------------
 
          Ground-State Mulliken Net Atomic Charges

     Atom                 Charge (a.u.)
  ----------------------------------------
      1 S                     0.061639
      2 C                    -0.048755
      3 C                    -0.369596
      4 C                     0.284730
      5 C                    -0.367241
      6 H                     0.132318
      7 C                    -0.367241
      8 S                     0.061639
      9 C                     0.284730
     10 C                    -0.048755
     11 C                    -0.369596
     12 H                     0.119123
     13 H                     0.187782
     14 H                     0.119123
     15 H                     0.187782
     16 H                     0.132318
  ----------------------------------------
  Sum of atomic charges =     0.000000

 -----------------------------------------------------------------
                    Cartesian Multipole Moments
 -----------------------------------------------------------------
    Charge (ESU x 10^10)
                -0.0000
    Dipole Moment (Debye)
         X       0.0000      Y      -0.0000      Z      -0.7034
       Tot       0.7034
    Quadrupole Moments (Debye-Ang)
        XX     -61.0732     XY       1.4442     YY     -72.4677
        XZ       0.0000     YZ      -0.0000     ZZ     -74.0543
    Octopole Moments (Debye-Ang^2)
       XXX       0.0000    XXY      -0.0000    XYY       0.0000
       YYY      -0.0000    XXZ       6.2457    XYZ     -13.6672
       YYZ      -5.4003    XZZ       0.0000    YZZ      -0.0000
       ZZZ       2.2024
    Hexadecapole Moments (Debye-Ang^3)
      XXXX   -1893.8825   XXXY      -8.1254   XXYY    -420.2427
      XYYY       3.6890   YYYY    -400.3188   XXXZ       0.0000
      XXYZ      -0.0000   XYYZ       0.0000   YYYZ      -0.0000
      XXZZ    -420.9695   XYZZ       5.4361   YYZZ    -104.0368
      XZZZ       0.0000   YZZZ      -0.0000   ZZZZ    -311.2254
 -----------------------------------------------------------------
 Calculating analytic gradient of the SCF energy
 Gradient of SCF Energy
            1           2           3           4           5           6
    1   0.0000426   0.0011360  -0.0002799   0.0002335  -0.0016137   0.0001755
    2   0.0001285   0.0003014  -0.0002370  -0.0000036   0.0006573  -0.0002098
    3   0.0000496  -0.0000695   0.0001306  -0.0001747   0.0004050  -0.0004502
            7           8           9          10          11          12
    1   0.0016137  -0.0000426  -0.0002335  -0.0011360   0.0002799  -0.0001176
    2  -0.0006573  -0.0001285   0.0000036  -0.0003014   0.0002370  -0.0000934
    3   0.0004050   0.0000496  -0.0001747  -0.0000695   0.0001306  -0.0000464
           13          14          15          16
    1   0.0000017   0.0001176  -0.0000017  -0.0001755
    2  -0.0002119   0.0000934   0.0002119   0.0002098
    3   0.0001556  -0.0000464   0.0001556  -0.0004502
 Max gradient component =       1.614E-03
 RMS gradient           =       4.661E-04
 Gradient time:  CPU 1.93 s  wall 1.87 s
 Geometry Optimization Parameters
   NAtoms,    NIC,     NZ,  NCons,   NDum,   NFix, NCnnct, MaxDiis
       16     111       0       1       0       0       0       0

 Cartesian Hessian Update
 Hessian Updated using BFGS Update


** CONSTRAINED OPTIMIZATION IN DELOCALIZED INTERNAL COORDINATES **
   Searching for a Minimum

   Optimization Cycle:   2

                       Coordinates (Angstroms)
     ATOM                X               Y               Z
      1  S         1.7592545234   -0.9614392099    0.7392294494
      2  C         3.1910054981   -0.1527185398    0.1930161017
      3  C         2.8941867344    0.8636132864   -0.6774904392
      4  C         1.4929918771    0.9974376674   -0.9139718032
      5  C         0.7283717136    0.0834921860   -0.2251358959
      6  H         1.0577363586    1.7314094846   -1.5830218408
      7  C        -0.7283717136   -0.0834921860   -0.2251358959
      8  S        -1.7592545234    0.9614392099    0.7392294494
      9  C        -1.4929918771   -0.9974376674   -0.9139718032
     10  C        -3.1910054981    0.1527185398    0.1930161017
     11  C        -2.8941867344   -0.8636132864   -0.6774904392
     12  H        -3.6468906288   -1.4932697273   -1.1387849952
     13  H         4.1626388982   -0.4769096021    0.5412995280
     14  H         3.6468906288    1.4932697273   -1.1387849952
     15  H        -4.1626388982    0.4769096021    0.5412995280
     16  H        -1.0577363586   -1.7314094846   -1.5830218408
   Point Group: c2    Number of degrees of freedom:    22


   Energy is  -1104.837450139

              Constraints and their Current Values
                                        Value     Constraint
   Dihedral:        4   5   7   9      100.000      100.000
 Hessian Updated using BFGS Update

 21 Hessian modes will be used to form the next step
  Hessian Eigenvalues:
     0.041168    0.045000    0.045000    0.045002    0.045010    0.046093
     0.155532    0.159989    0.160094    0.219777    0.236304    0.249671
     0.298379    0.314305    0.357218    0.358438    0.362142    0.381367
     0.431149    0.467413    0.521871

 Minimum Search - Taking Simple RFO Step
 Searching for Lamda that Minimizes Along All modes
 Value Taken    Lamda =  -0.00004285
 Step Taken.  Stepsize is  0.023818

                             Maximum     Tolerance    Cnvgd?
         Gradient           0.001455      0.000300      NO
         Displacement       0.015329      0.001200      NO
         Energy change     -0.000344      0.000001      NO


 New Cartesian Coordinates Obtained by Inverse Iteration

 Displacement from previous Coordinates is:  0.053146
 ----------------------------------------------------------------
             Standard Nuclear Orientation (Angstroms)
    I     Atom           X                Y                Z
 ----------------------------------------------------------------
    1      S       1.7599211963    -0.9660166127     0.7378576598
    2      C       3.1888467448    -0.1559180500     0.1882610186
    3      C       2.8917868582     0.8634961261    -0.6790066967
    4      C       1.4901717885     0.9984431965    -0.9105965544
    5      C       0.7289316868     0.0834913410    -0.2205351160
    6      H       1.0506577589     1.7361203309    -1.5728010410
    7      C      -0.7289316868    -0.0834913410    -0.2205351160
    8      S      -1.7599211963     0.9660166127     0.7378576598
    9      C      -1.4901717885    -0.9984431965    -0.9105965544
   10      C      -3.1888467448     0.1559180500     0.1882610186
   11      C      -2.8917868582    -0.8634961261    -0.6790066967
   12      H      -3.6436827685    -1.4941180374    -1.1400997463
   13      H       4.1621003586    -0.4800121588     0.5320605809
   14      H       3.6436827685     1.4941180374    -1.1400997463
   15      H      -4.1621003586     0.4800121588     0.5320605809
   16      H      -1.0506577589    -1.7361203309    -1.5728010410
 ----------------------------------------------------------------
 Molecular Point Group                 C2    NOp =  2
 Largest Abelian Subgroup              C2    NOp =  2
 Nuclear Repulsion Energy =   627.6571513624 hartrees
 There are       43 alpha and       43 beta electrons
 Applying Cartesian multipole field
    Component          Value
    ---------          -----
     (2,0,0)        1.00000E-11
     (0,2,0)        2.00000E-11
     (0,0,2)       -3.00000E-11
 Nucleus-field energy     =     0.0000000149 hartrees
 Requested basis set is 6-31++G(d,p)
 There are 76 shells and 234 basis functions
 A cutoff of  1.0D-11 yielded   2486 shell pairs
 There are     24532 function pairs
 Smallest overlap matrix eigenvalue = 1.17E-06

 Q-Chem warning in module /project/projectdirs/jcesr/qchem/qc44/cnl_qc441/compile/cori/qc_src/stvman/mkSTV.C, line 257:

 Overlap eigenvalue is smaller than square root of threshold

 Guess MOs from SCF MO coefficient file
 Reading MOs from coefficient file
 Reading MOs from coefficient file
 A restricted hybrid HF-DFT SCF calculation will be
 performed using Pulay DIIS extrapolation
 Exchange:     0.2000 Hartree-Fock + 0.0800 Slater + 0.7200 B88
 Correlation:  0.1900 VWN1RPA + 0.8100 LYP
 Using SG-1 standard quadrature grid
 SCF converges when DIIS error is below 1.0E-08
 Geometry optimization detected.  Setting ReadMinima to 0
 Setting SaveMinima to 0
 ---------------------------------------
  Cycle       Energy         DIIS Error
 ---------------------------------------
    1   -1104.8394230515      1.62E-04
    2   -1104.8374675074      3.41E-05
    3   -1104.8374479531      6.13E-05
    4   -1104.8374766883      1.13E-05
    5   -1104.8374776098      3.23E-06
    6   -1104.8374776771      1.36E-06
    7   -1104.8374776914      3.38E-07
    8   -1104.8374776910      1.30E-07
    9   -1104.8374776928      1.54E-08
   10   -1104.8374776926      7.53E-09 Convergence criterion met
 ---------------------------------------
 SCF time:  CPU 5.27 s  wall 4.63 s
 SCF   energy in the final basis set = -1104.8374776926
 Total energy in the final basis set = -1104.8374776926
 
 --------------------------------------------------------------
             Orbital Energies (a.u.) and Symmetries
 --------------------------------------------------------------
 
 Alpha MOs, Restricted
 -- Occupied --                  
-88.919 -88.919 -10.236 -10.235 -10.224 -10.224 -10.204 -10.204
  1 B     1 A     2 A     2 B     3 B     3 A     4 A     4 B                  
-10.203 -10.203  -7.978  -7.978  -5.942  -5.942  -5.939  -5.939
  5 B     5 A     6 B     6 A     7 B     7 A     8 B     8 A                  
 -5.936  -5.936  -0.898  -0.877  -0.768  -0.743  -0.740  -0.705
  9 B     9 A    10 A    10 B    11 A    11 B    12 A    12 B                  
 -0.600  -0.569  -0.562  -0.534  -0.523  -0.478  -0.417  -0.415
 13 A    13 B    14 A    14 B    15 A    15 B    16 A    16 B                  
 -0.411  -0.406  -0.393  -0.375  -0.374  -0.352  -0.349  -0.264
 17 A    17 B    18 A    19 A    18 B    19 B    20 A    21 A                  
 -0.257  -0.249  -0.237
 20 B    22 A    21 B                                                          
 -- Virtual --                   
 -0.038  -0.029  -0.005  -0.003   0.007   0.012   0.020   0.021
 23 A    22 B    24 A    23 B    25 A    24 B    25 B    26 A                  
  0.027   0.034   0.036   0.040   0.045   0.050   0.064   0.068
 27 A    28 A    26 B    27 B    29 A    28 B    29 B    30 A                  
  0.070   0.073   0.082   0.101   0.102   0.107   0.109   0.110
 30 B    31 A    32 A    31 B    33 A    34 A    35 A    32 B                  
  0.115   0.119   0.123   0.129   0.131   0.133   0.136   0.142
 33 B    34 B    35 B    36 A    36 B    37 A    38 A    37 B                  
  0.147   0.149   0.155   0.161   0.169   0.175   0.177   0.180
 38 B    39 A    40 A    39 B    41 A    42 A    40 B    41 B                  
  0.187   0.190   0.192   0.208   0.212   0.219   0.222   0.226
 43 A    42 B    43 B    44 A    44 B    45 A    45 B    46 A                  
  0.239   0.248   0.261   0.269   0.274   0.274   0.290   0.295
 47 A    46 B    47 B    48 A    48 B    49 A    50 A    49 B                  
  0.308   0.315   0.328   0.333   0.359   0.360   0.372   0.390
 50 B    51 B    51 A    52 A    53 A    52 B    53 B    54 A                  
  0.431   0.471   0.475   0.496   0.515   0.530   0.541   0.579
 54 B    55 A    55 B    56 A    57 A    56 B    57 B    58 B                  
  0.579   0.589   0.621   0.628   0.641   0.668   0.671   0.680
 58 A    59 A    59 B    60 A    60 B    61 B    61 A    62 A                  
  0.698   0.700   0.724   0.726   0.738   0.750   0.766   0.777
 63 A    62 B    63 B    64 A    64 B    65 B    65 A    66 B                  
  0.794   0.801   0.812   0.827   0.842   0.889   0.912   0.940
 66 A    67 B    67 A    68 A    68 B    69 A    69 B    70 A                  
  0.942   0.955   0.957   0.966   0.973   0.986   0.993   1.014
 70 B    71 B    71 A    72 B    72 A    73 A    73 B    74 B                  
  1.018   1.023   1.029   1.075   1.077   1.091   1.106   1.110
 75 B    74 A    75 A    76 B    76 A    77 A    77 B    78 A                  
  1.131   1.183   1.216   1.217   1.252   1.279   1.323   1.346
 78 B    79 A    79 B    80 A    80 B    81 A    81 B    82 A                  
  1.352   1.353   1.363   1.393   1.459   1.471   1.476   1.523
 82 B    83 A    83 B    84 A    84 B    85 A    85 B    86 A                  
  1.560   1.691   1.695   1.773   1.812   1.860   1.874   1.882
 86 B    87 A    87 B    88 A    89 A    88 B    90 A    89 B                  
  1.917   1.923   1.965   1.985   2.006   2.019   2.062   2.115
 90 B    91 A    92 A    91 B    93 A    92 B    93 B    94 A                  
  2.122   2.153   2.182   2.200   2.200   2.257   2.267   2.342
 95 A    94 B    95 B    96 B    96 A    97 B    97 A    98 A                  
  2.366   2.370   2.427   2.434   2.466   2.475   2.494   2.509
 99 A    98 B    99 B   100 A   101 A   100 B   101 B   102 A                  
  2.513   2.522   2.578   2.587   2.605   2.646   2.700   2.701
102 B   103 A   103 B   104 A   104 B   105 A   105 B   106 A                  
  2.752   2.838   2.854   2.881   2.932   3.164   3.173   3.268
106 B   107 A   107 B   108 A   108 B   109 B   109 A   110 B                  
  3.271   3.401   3.425   3.721   3.740   3.969   3.970   4.281
110 A   111 A   111 B   112 A   112 B   113 A   113 B   114 A                  
  4.303   4.320   4.328   4.435   4.535   4.660   4.710
115 A   114 B   115 B   116 A   116 B   117 A   117 B                          
 
 Beta MOs, Restricted
 -- Occupied --                  
-88.919 -88.919 -10.236 -10.235 -10.224 -10.224 -10.204 -10.204
  1 B     1 A     2 A     2 B     3 B     3 A     4 A     4 B                  
-10.203 -10.203  -7.978  -7.978  -5.942  -5.942  -5.939  -5.939
  5 B     5 A     6 B     6 A     7 B     7 A     8 B     8 A                  
 -5.936  -5.936  -0.898  -0.877  -0.768  -0.743  -0.740  -0.705
  9 B     9 A    10 A    10 B    11 A    11 B    12 A    12 B                  
 -0.600  -0.569  -0.562  -0.534  -0.523  -0.478  -0.417  -0.415
 13 A    13 B    14 A    14 B    15 A    15 B    16 A    16 B                  
 -0.411  -0.406  -0.393  -0.375  -0.374  -0.352  -0.349  -0.264
 17 A    17 B    18 A    19 A    18 B    19 B    20 A    21 A                  
 -0.257  -0.249  -0.237
 20 B    22 A    21 B                                                          
 -- Virtual --                   
 -0.038  -0.029  -0.005  -0.003   0.007   0.012   0.020   0.021
 23 A    22 B    24 A    23 B    25 A    24 B    25 B    26 A                  
  0.027   0.034   0.036   0.040   0.045   0.050   0.064   0.068
 27 A    28 A    26 B    27 B    29 A    28 B    29 B    30 A                  
  0.070   0.073   0.082   0.101   0.102   0.107   0.109   0.110
 30 B    31 A    32 A    31 B    33 A    34 A    35 A    32 B                  
  0.115   0.119   0.123   0.129   0.131   0.133   0.136   0.142
 33 B    34 B    35 B    36 A    36 B    37 A    38 A    37 B                  
  0.147   0.149   0.155   0.161   0.169   0.175   0.177   0.180
 38 B    39 A    40 A    39 B    41 A    42 A    40 B    41 B                  
  0.187   0.190   0.192   0.208   0.212   0.219   0.222   0.226
 43 A    42 B    43 B    44 A    44 B    45 A    45 B    46 A                  
  0.239   0.248   0.261   0.269   0.274   0.274   0.290   0.295
 47 A    46 B    47 B    48 A    48 B    49 A    50 A    49 B                  
  0.308   0.315   0.328   0.333   0.359   0.360   0.372   0.390
 50 B    51 B    51 A    52 A    53 A    52 B    53 B    54 A                  
  0.431   0.471   0.475   0.496   0.515   0.530   0.541   0.579
 54 B    55 A    55 B    56 A    57 A    56 B    57 B    58 B                  
  0.579   0.589   0.621   0.628   0.641   0.668   0.671   0.680
 58 A    59 A    59 B    60 A    60 B    61 B    61 A    62 A                  
  0.698   0.700   0.724   0.726   0.738   0.750   0.766   0.777
 63 A    62 B    63 B    64 A    64 B    65 B    65 A    66 B                  
  0.794   0.801   0.812   0.827   0.842   0.889   0.912   0.940
 66 A    67 B    67 A    68 A    68 B    69 A    69 B    70 A                  
  0.942   0.955   0.957   0.966   0.973   0.986   0.993   1.014
 70 B    71 B    71 A    72 B    72 A    73 A    73 B    74 B                  
  1.018   1.023   1.029   1.075   1.077   1.091   1.106   1.110
 75 B    74 A    75 A    76 B    76 A    77 A    77 B    78 A                  
  1.131   1.183   1.216   1.217   1.252   1.279   1.323   1.346
 78 B    79 A    79 B    80 A    80 B    81 A    81 B    82 A                  
  1.352   1.353   1.363   1.393   1.459   1.471   1.476   1.523
 82 B    83 A    83 B    84 A    84 B    85 A    85 B    86 A                  
  1.560   1.691   1.695   1.773   1.812   1.860   1.874   1.882
 86 B    87 A    87 B    88 A    89 A    88 B    90 A    89 B                  
  1.917   1.923   1.965   1.985   2.006   2.019   2.062   2.115
 90 B    91 A    92 A    91 B    93 A    92 B    93 B    94 A                  
  2.122   2.153   2.182   2.200   2.200   2.257   2.267   2.342
 95 A    94 B    95 B    96 B    96 A    97 B    97 A    98 A                  
  2.366   2.370   2.427   2.434   2.466   2.475   2.494   2.509
 99 A    98 B    99 B   100 A   101 A   100 B   101 B   102 A                  
  2.513   2.522   2.578   2.587   2.605   2.646   2.700   2.701
102 B   103 A   103 B   104 A   104 B   105 A   105 B   106 A                  
  2.752   2.838   2.854   2.881   2.932   3.164   3.173   3.268
106 B   107 A   107 B   108 A   108 B   109 B   109 A   110 B                  
  3.271   3.401   3.425   3.721   3.740   3.969   3.970   4.281
110 A   111 A   111 B   112 A   112 B   113 A   113 B   114 A                  
  4.303   4.320   4.328   4.435   4.535   4.660   4.710
115 A   114 B   115 B   116 A   116 B   117 A   117 B                          
 --------------------------------------------------------------
 
          Ground-State Mulliken Net Atomic Charges

     Atom                 Charge (a.u.)
  ----------------------------------------
      1 S                     0.064052
      2 C                    -0.051391
      3 C                    -0.366653
      4 C                     0.282374
      5 C                    -0.367232
      6 H                     0.132449
      7 C                    -0.367232
      8 S                     0.064052
      9 C                     0.282374
     10 C                    -0.051391
     11 C                    -0.366653
     12 H                     0.119081
     13 H                     0.187320
     14 H                     0.119081
     15 H                     0.187320
     16 H                     0.132449
  ----------------------------------------
  Sum of atomic charges =    -0.000000

 -----------------------------------------------------------------
                    Cartesian Multipole Moments
 -----------------------------------------------------------------
    Charge (ESU x 10^10)
                -0.0000
    Dipole Moment (Debye)
         X      -0.0000      Y       0.0000      Z      -0.6977
       Tot       0.6977
    Quadrupole Moments (Debye-Ang)
        XX     -61.1439     XY       1.4263     YY     -72.4020
        XZ      -0.0000     YZ       0.0000     ZZ     -74.0910
    Octopole Moments (Debye-Ang^2)
       XXX      -0.0000    XXY       0.0000    XYY       0.0000
       YYY      -0.0000    XXZ       6.0658    XYZ     -13.6465
       YYZ      -5.3692    XZZ       0.0000    YZZ      -0.0000
       ZZZ       2.3667
    Hexadecapole Moments (Debye-Ang^3)
      XXXX   -1893.1265   XXXY      -7.1523   XXYY    -419.9037
      XYYY       4.9279   YYYY    -401.6564   XXXZ      -0.0000
      XXYZ      -0.0000   XYYZ      -0.0000   YYYZ       0.0000
      XXZZ    -420.7851   XYZZ       5.8334   YYZZ    -104.1509
      XZZZ      -0.0000   YZZZ      -0.0000   ZZZZ    -310.2272
 -----------------------------------------------------------------
 Calculating analytic gradient of the SCF energy
 Gradient of SCF Energy
            1           2           3           4           5           6
    1   0.0000370   0.0000342  -0.0001475   0.0001630   0.0000513   0.0000264
    2  -0.0002981   0.0000326   0.0001107  -0.0003528   0.0010847  -0.0000888
    3   0.0004024   0.0000722  -0.0001999  -0.0004077   0.0004112  -0.0002927
            7           8           9          10          11          12
    1  -0.0000513  -0.0000369  -0.0001630  -0.0000342   0.0001475  -0.0000376
    2  -0.0010847   0.0002981   0.0003528  -0.0000326  -0.0001107  -0.0001418
    3   0.0004112   0.0004024  -0.0004077   0.0000722  -0.0001999  -0.0000609
           13          14          15          16
    1   0.0000093   0.0000376  -0.0000093  -0.0000264
    2  -0.0000960   0.0001418   0.0000960   0.0000888
    3   0.0000754  -0.0000609   0.0000754  -0.0002927
 Max gradient component =       1.085E-03
 RMS gradient           =       2.982E-04
 Gradient time:  CPU 1.87 s  wall 1.88 s
 Geometry Optimization Parameters
   NAtoms,    NIC,     NZ,  NCons,   NDum,   NFix, NCnnct, MaxDiis
       16     111       0       1       0       0       0       0

 Cartesian Hessian Update
 Hessian Updated using BFGS Update


** CONSTRAINED OPTIMIZATION IN DELOCALIZED INTERNAL COORDINATES **
   Searching for a Minimum

   Optimization Cycle:   3

                       Coordinates (Angstroms)
     ATOM                X               Y               Z
      1  S         1.7599211963   -0.9660166127    0.7378576598
      2  C         3.1888467448   -0.1559180500    0.1882610186
      3  C         2.8917868582    0.8634961261   -0.6790066967
      4  C         1.4901717885    0.9984431965   -0.9105965544
      5  C         0.7289316868    0.0834913410   -0.2205351160
      6  H         1.0506577589    1.7361203309   -1.5728010410
      7  C        -0.7289316868   -0.0834913410   -0.2205351160
      8  S        -1.7599211963    0.9660166127    0.7378576598
      9  C        -1.4901717885   -0.9984431965   -0.9105965544
     10  C        -3.1888467448    0.1559180500    0.1882610186
     11  C        -2.8917868582   -0.8634961261   -0.6790066967
     12  H        -3.6436827685   -1.4941180374   -1.1400997463
     13  H         4.1621003586   -0.4800121588    0.5320605809
     14  H         3.6436827685    1.4941180374   -1.1400997463
     15  H        -4.1621003586    0.4800121588    0.5320605809
     16  H        -1.0506577589   -1.7361203309   -1.5728010410
   Point Group: c2    Number of degrees of freedom:    22


   Energy is  -1104.837477693

              Constraints and their Current Values
                                        Value     Constraint
   Dihedral:        4   5   7   9      100.000      100.000
 Hessian Updated using BFGS Update

 21 Hessian modes will be used to form the next step
  Hessian Eigenvalues:
     0.022595    0.045000    0.045001    0.045005    0.045323    0.045402
     0.152140    0.160024    0.160586    0.223283    0.244126    0.290316
     0.303768    0.316049    0.357333    0.357821    0.361665    0.386362
     0.441124    0.492286    0.512806

 Minimum Search - Taking Simple RFO Step
 Searching for Lamda that Minimizes Along All modes
 Value Taken    Lamda =  -0.00002069
 Step Taken.  Stepsize is  0.028527

                             Maximum     Tolerance    Cnvgd?
         Gradient           0.000641      0.000300      NO
         Displacement       0.021463      0.001200      NO
         Energy change     -0.000028      0.000001      NO


 New Cartesian Coordinates Obtained by Inverse Iteration

 Displacement from previous Coordinates is:  0.067339
 ----------------------------------------------------------------
             Standard Nuclear Orientation (Angstroms)
    I     Atom           X                Y                Z
 ----------------------------------------------------------------
    1      S       1.7625118571    -0.9698723517     0.7344168697
    2      C       3.1894810746    -0.1595907206     0.1816786276
    3      C       2.8901687521     0.8635841886    -0.6799922603
    4      C       1.4875162643     1.0003746317    -0.9053211929
    5      C       0.7289771789     0.0841993613    -0.2146671964
    6      H       1.0442031299     1.7428789137    -1.5592880872
    7      C      -0.7289771789    -0.0841993613    -0.2146671964
    8      S      -1.7625118571     0.9698723517     0.7344168697
    9      C      -1.4875162643    -1.0003746317    -0.9053211929
   10      C      -3.1894810746     0.1595907206     0.1816786276
   11      C      -2.8901687521    -0.8635841886    -0.6799922603
   12      H      -3.6410163093    -1.4950773628    -1.1410166942
   13      H       4.1645362091    -0.4845179267     0.5193300386
   14      H       3.6410163093     1.4950773628    -1.1410166942
   15      H      -4.1645362091     0.4845179267     0.5193300386
   16      H      -1.0442031299    -1.7428789137    -1.5592880872
 ----------------------------------------------------------------
 Molecular Point Group                 C2    NOp =  2
 Largest Abelian Subgroup              C2    NOp =  2
 Nuclear Repulsion Energy =   627.7318221895 hartrees
 There are       43 alpha and       43 beta electrons
 Applying Cartesian multipole field
    Component          Value
    ---------          -----
     (2,0,0)        1.00000E-11
     (0,2,0)        2.00000E-11
     (0,0,2)       -3.00000E-11
 Nucleus-field energy     =     0.0000000149 hartrees
 Requested basis set is 6-31++G(d,p)
 There are 76 shells and 234 basis functions
 A cutoff of  1.0D-11 yielded   2486 shell pairs
 There are     24532 function pairs
 Smallest overlap matrix eigenvalue = 1.16E-06

 Q-Chem warning in module /project/projectdirs/jcesr/qchem/qc44/cnl_qc441/compile/cori/qc_src/stvman/mkSTV.C, line 257:

 Overlap eigenvalue is smaller than square root of threshold

 Guess MOs from SCF MO coefficient file
 Reading MOs from coefficient file
 Reading MOs from coefficient file
 A restricted hybrid HF-DFT SCF calculation will be
 performed using Pulay DIIS extrapolation
 Exchange:     0.2000 Hartree-Fock + 0.0800 Slater + 0.7200 B88
 Correlation:  0.1900 VWN1RPA + 0.8100 LYP
 Using SG-1 standard quadrature grid
 SCF converges when DIIS error is below 1.0E-08
 Geometry optimization detected.  Setting ReadMinima to 0
 Setting SaveMinima to 0
 ---------------------------------------
  Cycle       Energy         DIIS Error
 ---------------------------------------
    1   -1104.8400251121      2.09E-04
    2   -1104.8374821771      3.13E-05
    3   -1104.8374673046      5.49E-05
    4   -1104.8374910119      7.95E-06
    5   -1104.8374914050      3.67E-06
    6   -1104.8374914846      1.79E-06
    7   -1104.8374915065      3.53E-07
    8   -1104.8374915086      1.21E-07
    9   -1104.8374915092      1.74E-08
   10   -1104.8374915107      7.44E-09 Convergence criterion met
 ---------------------------------------
 SCF time:  CPU 5.27 s  wall 4.63 s
 SCF   energy in the final basis set = -1104.8374915107
 Total energy in the final basis set = -1104.8374915107
 
 --------------------------------------------------------------
             Orbital Energies (a.u.) and Symmetries
 --------------------------------------------------------------
 
 Alpha MOs, Restricted
 -- Occupied --                  
-88.919 -88.919 -10.236 -10.235 -10.224 -10.224 -10.204 -10.204
  1 B     1 A     2 A     2 B     3 B     3 A     4 A     4 B                  
-10.203 -10.203  -7.978  -7.978  -5.942  -5.942  -5.939  -5.939
  5 B     5 A     6 B     6 A     7 B     7 A     8 B     8 A                  
 -5.936  -5.936  -0.898  -0.877  -0.768  -0.743  -0.740  -0.705
  9 B     9 A    10 A    10 B    11 A    11 B    12 A    12 B                  
 -0.600  -0.569  -0.562  -0.534  -0.523  -0.478  -0.417  -0.415
 13 A    13 B    14 A    14 B    15 A    15 B    16 A    16 B                  
 -0.411  -0.406  -0.393  -0.375  -0.375  -0.352  -0.349  -0.264
 17 A    17 B    18 A    19 A    18 B    19 B    20 A    21 A                  
 -0.257  -0.250  -0.236
 20 B    22 A    21 B                                                          
 -- Virtual --                   
 -0.038  -0.028  -0.005  -0.003   0.007   0.012   0.020   0.021
 23 A    22 B    24 A    23 B    25 A    24 B    25 B    26 A                  
  0.027   0.034   0.036   0.040   0.045   0.050   0.064   0.068
 27 A    28 A    26 B    27 B    29 A    28 B    29 B    30 A                  
  0.070   0.073   0.082   0.101   0.102   0.108   0.109   0.110
 30 B    31 A    32 A    31 B    33 A    34 A    35 A    32 B                  
  0.115   0.119   0.123   0.129   0.131   0.133   0.136   0.142
 33 B    34 B    35 B    36 A    36 B    37 A    38 A    37 B                  
  0.146   0.149   0.155   0.161   0.169   0.175   0.177   0.180
 38 B    39 A    40 A    39 B    41 A    42 A    40 B    41 B                  
  0.187   0.190   0.192   0.208   0.212   0.219   0.222   0.226
 43 A    42 B    43 B    44 A    44 B    45 A    45 B    46 A                  
  0.238   0.248   0.261   0.269   0.274   0.274   0.290   0.295
 47 A    46 B    47 B    48 A    49 A    48 B    50 A    49 B                  
  0.308   0.315   0.328   0.334   0.359   0.360   0.372   0.390
 50 B    51 B    51 A    52 A    53 A    52 B    53 B    54 A                  
  0.432   0.471   0.475   0.497   0.516   0.530   0.540   0.579
 54 B    55 A    55 B    56 A    57 A    56 B    57 B    58 B                  
  0.580   0.590   0.621   0.628   0.641   0.668   0.671   0.680
 58 A    59 A    59 B    60 A    60 B    61 B    61 A    62 A                  
  0.698   0.701   0.724   0.726   0.738   0.750   0.766   0.777
 63 A    62 B    63 B    64 A    64 B    65 B    65 A    66 B                  
  0.795   0.801   0.811   0.827   0.841   0.889   0.913   0.940
 66 A    67 B    67 A    68 A    68 B    69 A    69 B    70 A                  
  0.942   0.956   0.958   0.966   0.972   0.986   0.993   1.014
 70 B    71 B    71 A    72 B    72 A    73 A    73 B    74 B                  
  1.018   1.022   1.029   1.075   1.077   1.091   1.106   1.110
 75 B    74 A    75 A    76 B    76 A    77 A    77 B    78 A                  
  1.130   1.183   1.216   1.217   1.251   1.279   1.323   1.347
 78 B    79 A    79 B    80 A    80 B    81 A    81 B    82 A                  
  1.352   1.353   1.364   1.395   1.460   1.468   1.478   1.525
 82 B    83 A    83 B    84 A    84 B    85 A    85 B    86 A                  
  1.558   1.690   1.695   1.773   1.811   1.861   1.873   1.882
 86 B    87 A    87 B    88 A    89 A    88 B    90 A    89 B                  
  1.918   1.923   1.965   1.986   2.006   2.020   2.062   2.115
 90 B    91 A    92 A    91 B    93 A    92 B    93 B    94 A                  
  2.123   2.154   2.182   2.201   2.201   2.256   2.268   2.343
 95 A    94 B    95 B    96 A    96 B    97 B    97 A    98 A                  
  2.367   2.370   2.427   2.435   2.466   2.475   2.495   2.509
 99 A    98 B    99 B   100 A   101 A   100 B   101 B   102 A                  
  2.514   2.522   2.578   2.587   2.606   2.646   2.700   2.701
102 B   103 A   103 B   104 A   104 B   105 A   105 B   106 A                  
  2.752   2.839   2.855   2.882   2.932   3.165   3.174   3.269
106 B   107 A   107 B   108 A   108 B   109 B   109 A   110 B                  
  3.271   3.401   3.425   3.721   3.741   3.969   3.970   4.281
110 A   111 A   111 B   112 A   112 B   113 A   113 B   114 A                  
  4.304   4.319   4.328   4.435   4.535   4.660   4.710
115 A   114 B   115 B   116 A   116 B   117 A   117 B                          
 
 Beta MOs, Restricted
 -- Occupied --                  
-88.919 -88.919 -10.236 -10.235 -10.224 -10.224 -10.204 -10.204
  1 B     1 A     2 A     2 B     3 B     3 A     4 A     4 B                  
-10.203 -10.203  -7.978  -7.978  -5.942  -5.942  -5.939  -5.939
  5 B     5 A     6 B     6 A     7 B     7 A     8 B     8 A                  
 -5.936  -5.936  -0.898  -0.877  -0.768  -0.743  -0.740  -0.705
  9 B     9 A    10 A    10 B    11 A    11 B    12 A    12 B                  
 -0.600  -0.569  -0.562  -0.534  -0.523  -0.478  -0.417  -0.415
 13 A    13 B    14 A    14 B    15 A    15 B    16 A    16 B                  
 -0.411  -0.406  -0.393  -0.375  -0.375  -0.352  -0.349  -0.264
 17 A    17 B    18 A    19 A    18 B    19 B    20 A    21 A                  
 -0.257  -0.250  -0.236
 20 B    22 A    21 B                                                          
 -- Virtual --                   
 -0.038  -0.028  -0.005  -0.003   0.007   0.012   0.020   0.021
 23 A    22 B    24 A    23 B    25 A    24 B    25 B    26 A                  
  0.027   0.034   0.036   0.040   0.045   0.050   0.064   0.068
 27 A    28 A    26 B    27 B    29 A    28 B    29 B    30 A                  
  0.070   0.073   0.082   0.101   0.102   0.108   0.109   0.110
 30 B    31 A    32 A    31 B    33 A    34 A    35 A    32 B                  
  0.115   0.119   0.123   0.129   0.131   0.133   0.136   0.142
 33 B    34 B    35 B    36 A    36 B    37 A    38 A    37 B                  
  0.146   0.149   0.155   0.161   0.169   0.175   0.177   0.180
 38 B    39 A    40 A    39 B    41 A    42 A    40 B    41 B                  
  0.187   0.190   0.192   0.208   0.212   0.219   0.222   0.226
 43 A    42 B    43 B    44 A    44 B    45 A    45 B    46 A                  
  0.238   0.248   0.261   0.269   0.274   0.274   0.290   0.295
 47 A    46 B    47 B    48 A    49 A    48 B    50 A    49 B                  
  0.308   0.315   0.328   0.334   0.359   0.360   0.372   0.390
 50 B    51 B    51 A    52 A    53 A    52 B    53 B    54 A                  
  0.432   0.471   0.475   0.497   0.516   0.530   0.540   0.579
 54 B    55 A    55 B    56 A    57 A    56 B    57 B    58 B                  
  0.580   0.590   0.621   0.628   0.641   0.668   0.671   0.680
 58 A    59 A    59 B    60 A    60 B    61 B    61 A    62 A                  
  0.698   0.701   0.724   0.726   0.738   0.750   0.766   0.777
 63 A    62 B    63 B    64 A    64 B    65 B    65 A    66 B                  
  0.795   0.801   0.811   0.827   0.841   0.889   0.913   0.940
 66 A    67 B    67 A    68 A    68 B    69 A    69 B    70 A                  
  0.942   0.956   0.958   0.966   0.972   0.986   0.993   1.014
 70 B    71 B    71 A    72 B    72 A    73 A    73 B    74 B                  
  1.018   1.022   1.029   1.075   1.077   1.091   1.106   1.110
 75 B    74 A    75 A    76 B    76 A    77 A    77 B    78 A                  
  1.130   1.183   1.216   1.217   1.251   1.279   1.323   1.347
 78 B    79 A    79 B    80 A    80 B    81 A    81 B    82 A                  
  1.352   1.353   1.364   1.395   1.460   1.468   1.478   1.525
 82 B    83 A    83 B    84 A    84 B    85 A    85 B    86 A                  
  1.558   1.690   1.695   1.773   1.811   1.861   1.873   1.882
 86 B    87 A    87 B    88 A    89 A    88 B    90 A    89 B                  
  1.918   1.923   1.965   1.986   2.006   2.020   2.062   2.115
 90 B    91 A    92 A    91 B    93 A    92 B    93 B    94 A                  
  2.123   2.154   2.182   2.201   2.201   2.256   2.268   2.343
 95 A    94 B    95 B    96 A    96 B    97 B    97 A    98 A                  
  2.367   2.370   2.427   2.435   2.466   2.475   2.495   2.509
 99 A    98 B    99 B   100 A   101 A   100 B   101 B   102 A                  
  2.514   2.522   2.578   2.587   2.606   2.646   2.700   2.701
102 B   103 A   103 B   104 A   104 B   105 A   105 B   106 A                  
  2.752   2.839   2.855   2.882   2.932   3.165   3.174   3.269
106 B   107 A   107 B   108 A   108 B   109 B   109 A   110 B                  
  3.271   3.401   3.425   3.721   3.741   3.969   3.970   4.281
110 A   111 A   111 B   112 A   112 B   113 A   113 B   114 A                  
  4.304   4.319   4.328   4.435   4.535   4.660   4.710
115 A   114 B   115 B   116 A   116 B   117 A   117 B                          
 --------------------------------------------------------------
 
          Ground-State Mulliken Net Atomic Charges

     Atom                 Charge (a.u.)
  ----------------------------------------
      1 S                     0.064816
      2 C                    -0.051581
      3 C                    -0.364254
      4 C                     0.279006
      5 C                    -0.366643
      6 H                     0.132490
      7 C                    -0.366643
      8 S                     0.064816
      9 C                     0.279006
     10 C                    -0.051581
     11 C                    -0.364254
     12 H                     0.119030
     13 H                     0.187135
     14 H                     0.119030
     15 H                     0.187135
     16 H                     0.132490
  ----------------------------------------
  Sum of atomic charges =    -0.000000

 -----------------------------------------------------------------
                    Cartesian Multipole Moments
 -----------------------------------------------------------------
    Charge (ESU x 10^10)
                -0.0000
    Dipole Moment (Debye)
         X      -0.0000      Y       0.0000      Z      -0.6968
       Tot       0.6968
    Quadrupole Moments (Debye-Ang)
        XX     -61.1395     XY       1.3996     YY     -72.3513
        XZ       0.0000     YZ       0.0000     ZZ     -74.1583
    Octopole Moments (Debye-Ang^2)
       XXX      -0.0000    XXY      -0.0000    XYY      -0.0000
       YYY      -0.0000    XXZ       5.8813    XYZ     -13.5771
       YYZ      -5.3215    XZZ      -0.0000    YZZ      -0.0000
       ZZZ       2.6399
    Hexadecapole Moments (Debye-Ang^3)
      XXXX   -1892.7494   XXXY      -6.6247   XXYY    -420.0127
      XYYY       6.2100   YYYY    -403.1007   XXXZ       0.0000
      XXYZ       0.0000   XYYZ       0.0000   YYYZ       0.0000
      XXZZ    -421.0648   XYZZ       6.2574   YYZZ    -104.2078
      XZZZ       0.0000   YZZZ       0.0000   ZZZZ    -308.4141
 -----------------------------------------------------------------
 Calculating analytic gradient of the SCF energy
 Gradient of SCF Energy
            1           2           3           4           5           6
    1   0.0000509  -0.0003179   0.0002021  -0.0000949   0.0005229  -0.0000744
    2   0.0000364  -0.0000450   0.0000339  -0.0007902   0.0013681  -0.0000642
    3   0.0001691   0.0000721  -0.0000909  -0.0006723   0.0005394  -0.0000251
            7           8           9          10          11          12
    1  -0.0005229  -0.0000509   0.0000949   0.0003179  -0.0002021   0.0000368
    2  -0.0013681  -0.0000364   0.0007902   0.0000450  -0.0000339  -0.0000247
    3   0.0005394   0.0001691  -0.0006723   0.0000721  -0.0000909   0.0000434
           13          14          15          16
    1   0.0000330  -0.0000368  -0.0000330   0.0000744
    2   0.0000373   0.0000247  -0.0000373   0.0000642
    3  -0.0000357   0.0000434  -0.0000357  -0.0000251
 Max gradient component =       1.368E-03
 RMS gradient           =       3.942E-04
 Gradient time:  CPU 1.87 s  wall 1.88 s
 Geometry Optimization Parameters
   NAtoms,    NIC,     NZ,  NCons,   NDum,   NFix, NCnnct, MaxDiis
       16     111       0       1       0       0       0       0

 Cartesian Hessian Update
 Hessian Updated using BFGS Update


** CONSTRAINED OPTIMIZATION IN DELOCALIZED INTERNAL COORDINATES **
   Searching for a Minimum

   Optimization Cycle:   4

                       Coordinates (Angstroms)
     ATOM                X               Y               Z
[...]
  3.271   3.402   3.425   3.721   3.741   3.969   3.971   4.282
110 A   111 A   111 B   112 A   112 B   113 A   113 B   114 A                  
  4.304   4.319   4.327   4.435   4.535   4.660   4.710
115 A   114 B   115 B   116 A   116 B   117 A   117 B                          
 --------------------------------------------------------------
 
          Ground-State Mulliken Net Atomic Charges

     Atom                 Charge (a.u.)
  ----------------------------------------
      1 S                     0.064731
      2 C                    -0.050938
      3 C                    -0.360670
      4 C                     0.274195
      5 C                    -0.366211
      6 H                     0.132695
      7 C                    -0.366210
      8 S                     0.064731
      9 C                     0.274195
     10 C                    -0.050938
     11 C                    -0.360670
     12 H                     0.118984
     13 H                     0.187214
     14 H                     0.118984
     15 H                     0.187214
     16 H                     0.132695
  ----------------------------------------
  Sum of atomic charges =     0.000000

 -----------------------------------------------------------------
                    Cartesian Multipole Moments
 -----------------------------------------------------------------
    Charge (ESU x 10^10)
                 0.0000
    Dipole Moment (Debye)
         X       0.0000      Y      -0.0000      Z      -0.7095
       Tot       0.7095
    Quadrupole Moments (Debye-Ang)
        XX     -61.1244     XY       1.3344     YY     -72.2696
        XZ       0.0000     YZ       0.0000     ZZ     -74.2660
    Octopole Moments (Debye-Ang^2)
       XXX       0.0000    XXY      -0.0000    XYY       0.0000
       YYY      -0.0000    XXZ       5.5416    XYZ     -13.5124
       YYZ      -5.2544    XZZ       0.0000    YZZ      -0.0000
       ZZZ       3.0488
    Hexadecapole Moments (Debye-Ang^3)
      XXXX   -1893.5726   XXXY      -6.6018   XXYY    -420.4469
      XYYY       8.1139   YYYY    -406.8234   XXXZ       0.0000
      XXYZ      -0.0000   XYYZ       0.0000   YYYZ       0.0000
      XXZZ    -421.6196   XYZZ       7.0071   YYZZ    -104.3328
      XZZZ       0.0000   YZZZ       0.0000   ZZZZ    -304.3858
 -----------------------------------------------------------------
 Calculating analytic gradient of the SCF energy
 Gradient of SCF Energy
            1           2           3           4           5           6
    1  -0.0000099   0.0000206  -0.0000419   0.0001456  -0.0003016  -0.0000000
    2   0.0000575   0.0000155   0.0000230  -0.0009336   0.0018674   0.0000432
    3  -0.0000245   0.0000450   0.0000227  -0.0011961   0.0011283   0.0000569
            7           8           9          10          11          12
    1   0.0003016   0.0000099  -0.0001456  -0.0000206   0.0000419  -0.0000061
    2  -0.0018674  -0.0000575   0.0009336  -0.0000155  -0.0000230   0.0000150
    3   0.0011283  -0.0000245  -0.0011961   0.0000450   0.0000227  -0.0000136
           13          14          15          16
    1   0.0000005   0.0000061  -0.0000005   0.0000000
    2   0.0000023  -0.0000150  -0.0000023  -0.0000432
    3  -0.0000188  -0.0000136  -0.0000188   0.0000569
 Max gradient component =       1.867E-03
 RMS gradient           =       5.473E-04
 Gradient time:  CPU 1.92 s  wall 1.88 s
 Geometry Optimization Parameters
   NAtoms,    NIC,     NZ,  NCons,   NDum,   NFix, NCnnct, MaxDiis
       16     111       0       1       0       0       0       0

 Cartesian Hessian Update
 Hessian Updated using BFGS Update


** CONSTRAINED OPTIMIZATION IN DELOCALIZED INTERNAL COORDINATES **
   Searching for a Minimum

   Optimization Cycle:   7

                       Coordinates (Angstroms)
     ATOM                X               Y               Z
      1  S         1.7675601708   -0.9777458427    0.7263135946
      2  C         3.1922573646   -0.1655582540    0.1699039356
      3  C         2.8875253031    0.8657234589   -0.6801449399
      4  C         1.4837453867    1.0067645126   -0.8941462354
      5  C         0.7281846736    0.0873011170   -0.2035781473
      6  H         1.0379230636    1.7563530053   -1.5382312601
      7  C        -0.7281846736   -0.0873011170   -0.2035781473
      8  S        -1.7675601708    0.9777458427    0.7263135946
      9  C        -1.4837453867   -1.0067645126   -0.8941462354
     10  C        -3.1922573646    0.1655582540    0.1699039356
     11  C        -2.8875253031   -0.8657234589   -0.6801449399
     12  H        -3.6360620131   -1.4989530103   -1.1427050471
     13  H         4.1689757554   -0.4953631874    0.4977282044
     14  H         3.6360620131    1.4989530103   -1.1427050471
     15  H        -4.1689757554    0.4953631874    0.4977282044
     16  H        -1.0379230636   -1.7563530053   -1.5382312601
   Point Group: c2    Number of degrees of freedom:    22


   Energy is  -1104.837502594

              Constraints and their Current Values
                                        Value     Constraint
   Dihedral:        4   5   7   9      100.000      100.000
 Hessian Updated using BFGS Update

 21 Hessian modes will be used to form the next step
  Hessian Eigenvalues:
     0.007932    0.026222    0.045000    0.045011    0.045206    0.046033
     0.154103    0.160214    0.160415    0.223394    0.237464    0.289649
     0.296495    0.315311    0.357283    0.359636    0.362305    0.382104
     0.442957    0.489179    0.537776

 Minimum Search - Taking Simple RFO Step
 Searching for Lamda that Minimizes Along All modes
 Value Taken    Lamda =   0.00000000
 Step Taken.  Stepsize is  0.004120

                             Maximum     Tolerance    Cnvgd?
         Gradient           0.000089      0.000300     YES
         Displacement       0.002887      0.001200      NO
         Energy change     -0.000001      0.000001     YES

 Final energy is   -1104.83750259440     


 ******************************
 **  OPTIMIZATION CONVERGED  **
 ******************************

                       Coordinates (Angstroms)
     ATOM                X               Y               Z
      1  S         1.7675601708   -0.9777458427    0.7263135946
      2  C         3.1922573646   -0.1655582540    0.1699039356
      3  C         2.8875253031    0.8657234589   -0.6801449399
      4  C         1.4837453867    1.0067645126   -0.8941462354
      5  C         0.7281846736    0.0873011170   -0.2035781473
      6  H         1.0379230636    1.7563530053   -1.5382312601
      7  C        -0.7281846736   -0.0873011170   -0.2035781473
      8  S        -1.7675601708    0.9777458427    0.7263135946
      9  C        -1.4837453867   -1.0067645126   -0.8941462354
     10  C        -3.1922573646    0.1655582540    0.1699039356
     11  C        -2.8875253031   -0.8657234589   -0.6801449399
     12  H        -3.6360620131   -1.4989530103   -1.1427050471
     13  H         4.1689757554   -0.4953631874    0.4977282044
     14  H         3.6360620131    1.4989530103   -1.1427050471
     15  H        -4.1689757554    0.4953631874    0.4977282044
     16  H        -1.0379230636   -1.7563530053   -1.5382312601

Z-matrix Print:
$molecule
0 1
S 
C  1 1.731763
H  2 1.081767 1 120.161820
C  2 1.370761 1 111.666271 3 -179.822075 0
H  4 1.084089 2 123.404817 1 179.795510 0
C  4 1.426985 2 112.709125 1 0.177715 0
H  6 1.084198 4 124.189939 2 179.496281 0
C  6 1.375925 4 113.508359 2 -0.226387 0
C  8 1.466798 6 128.665390 4 178.533425 0
C  9 1.375925 8 128.665390 6 -99.999985 0
H  10 1.084198 9 122.301101 8 -1.195172 0
C  10 1.426985 9 113.508359 8 178.533425 0
H  12 1.084089 10 123.884875 9 -179.842045 0
C  12 1.370761 10 112.709125 9 -0.226387 0
H  14 1.081767 12 128.171626 10 -179.626606 0
S  14 1.731763 12 111.666271 10 0.177715 0
$end

 
 --------------------------------------------------------------
             Orbital Energies (a.u.) and Symmetries
 --------------------------------------------------------------
 
 Alpha MOs, Restricted
 -- Occupied --                  
-88.919 -88.919 -10.236 -10.235 -10.224 -10.224 -10.204 -10.204
  1 B     1 A     2 A     2 B     3 B     3 A     4 A     4 B                  
-10.203 -10.203  -7.978  -7.978  -5.942  -5.942  -5.939  -5.939
  5 B     5 A     6 B     6 A     7 B     7 A     8 B     8 A                  
 -5.936  -5.936  -0.898  -0.877  -0.768  -0.743  -0.740  -0.705
  9 B     9 A    10 A    10 B    11 A    11 B    12 A    12 B                  
 -0.600  -0.569  -0.562  -0.534  -0.523  -0.478  -0.417  -0.415
 13 A    13 B    14 A    14 B    15 A    15 B    16 A    16 B                  
 -0.411  -0.406  -0.394  -0.375  -0.375  -0.352  -0.349  -0.264
 17 A    17 B    18 A    19 A    18 B    19 B    20 A    21 A                  
 -0.257  -0.250  -0.236
 20 B    22 A    21 B                                                          
 -- Virtual --                   
 -0.038  -0.028  -0.005  -0.003   0.007   0.012   0.020   0.021
 23 A    22 B    24 A    23 B    25 A    24 B    25 B    26 A                  
  0.027   0.034   0.036   0.040   0.045   0.050   0.064   0.067
 27 A    28 A    26 B    27 B    29 A    28 B    29 B    30 A                  
  0.071   0.073   0.083   0.101   0.102   0.108   0.109   0.110
 30 B    31 A    32 A    31 B    33 A    34 A    35 A    32 B                  
  0.115   0.119   0.123   0.129   0.131   0.133   0.136   0.142
 33 B    34 B    35 B    36 A    36 B    37 A    38 A    37 B                  
  0.146   0.150   0.156   0.161   0.169   0.175   0.176   0.181
 38 B    39 A    40 A    39 B    41 A    42 A    40 B    41 B                  
  0.187   0.190   0.193   0.208   0.212   0.219   0.223   0.226
 43 A    42 B    43 B    44 A    44 B    45 A    45 B    46 A                  
  0.238   0.248   0.262   0.270   0.273   0.274   0.290   0.295
 47 A    46 B    47 B    48 A    49 A    48 B    50 A    49 B                  
  0.309   0.315   0.328   0.334   0.359   0.360   0.372   0.390
 50 B    51 B    51 A    52 A    53 A    52 B    53 B    54 A                  
  0.432   0.471   0.474   0.497   0.516   0.529   0.538   0.578
 54 B    55 A    55 B    56 A    57 A    56 B    57 B    58 B                  
  0.581   0.590   0.623   0.626   0.641   0.667   0.672   0.681
 58 A    59 A    59 B    60 A    60 B    61 B    61 A    62 A                  
  0.697   0.702   0.724   0.726   0.738   0.751   0.765   0.777
 63 A    62 B    63 B    64 A    64 B    65 B    65 A    66 B                  
  0.795   0.801   0.810   0.827   0.841   0.888   0.913   0.939
 66 A    67 B    67 A    68 A    68 B    69 A    69 B    70 A                  
  0.943   0.955   0.958   0.965   0.972   0.986   0.993   1.014
 70 B    71 B    71 A    72 B    72 A    73 A    73 B    74 B                  
  1.019   1.021   1.029   1.077   1.077   1.091   1.106   1.110
 75 B    74 A    75 A    76 B    76 A    77 A    77 B    78 A                  
  1.130   1.183   1.215   1.217   1.251   1.279   1.323   1.347
 78 B    79 A    79 B    80 A    80 B    81 A    81 B    82 A                  
  1.351   1.353   1.364   1.396   1.460   1.466   1.479   1.527
 82 B    83 A    83 B    84 A    84 B    85 A    85 B    86 A                  
  1.556   1.690   1.695   1.773   1.807   1.862   1.874   1.883
 86 B    87 A    87 B    88 A    89 A    88 B    90 A    89 B                  
  1.918   1.923   1.964   1.987   2.005   2.020   2.062   2.115
 90 B    91 A    92 A    91 B    93 A    92 B    93 B    94 A                  
  2.122   2.153   2.182   2.199   2.201   2.254   2.268   2.344
 95 A    94 B    95 B    96 A    96 B    97 B    97 A    98 A                  
  2.367   2.370   2.426   2.436   2.466   2.474   2.496   2.508
 99 A    98 B    99 B   100 A   101 A   100 B   101 B   102 A                  
  2.515   2.522   2.578   2.587   2.607   2.646   2.700   2.701
102 B   103 A   103 B   104 A   104 B   105 A   105 B   106 A                  
  2.753   2.839   2.855   2.881   2.932   3.165   3.174   3.269
106 B   107 A   107 B   108 A   108 B   109 B   109 A   110 B                  
  3.271   3.402   3.425   3.721   3.741   3.969   3.971   4.282
110 A   111 A   111 B   112 A   112 B   113 A   113 B   114 A                  
  4.304   4.319   4.327   4.435   4.535   4.660   4.710
115 A   114 B   115 B   116 A   116 B   117 A   117 B                          
 
 Beta MOs, Restricted
 -- Occupied --                  
-88.919 -88.919 -10.236 -10.235 -10.224 -10.224 -10.204 -10.204
  1 B     1 A     2 A     2 B     3 B     3 A     4 A     4 B                  
-10.203 -10.203  -7.978  -7.978  -5.942  -5.942  -5.939  -5.939
  5 B     5 A     6 B     6 A     7 B     7 A     8 B     8 A                  
 -5.936  -5.936  -0.898  -0.877  -0.768  -0.743  -0.740  -0.705
  9 B     9 A    10 A    10 B    11 A    11 B    12 A    12 B                  
 -0.600  -0.569  -0.562  -0.534  -0.523  -0.478  -0.417  -0.415
 13 A    13 B    14 A    14 B    15 A    15 B    16 A    16 B                  
 -0.411  -0.406  -0.394  -0.375  -0.375  -0.352  -0.349  -0.264
 17 A    17 B    18 A    19 A    18 B    19 B    20 A    21 A                  
 -0.257  -0.250  -0.236
 20 B    22 A    21 B                                                          
 -- Virtual --                   
 -0.038  -0.028  -0.005  -0.003   0.007   0.012   0.020   0.021
 23 A    22 B    24 A    23 B    25 A    24 B    25 B    26 A                  
  0.027   0.034   0.036   0.040   0.045   0.050   0.064   0.067
 27 A    28 A    26 B    27 B    29 A    28 B    29 B    30 A                  
  0.071   0.073   0.083   0.101   0.102   0.108   0.109   0.110
 30 B    31 A    32 A    31 B    33 A    34 A    35 A    32 B                  
  0.115   0.119   0.123   0.129   0.131   0.133   0.136   0.142
 33 B    34 B    35 B    36 A    36 B    37 A    38 A    37 B                  
  0.146   0.150   0.156   0.161   0.169   0.175   0.176   0.181
 38 B    39 A    40 A    39 B    41 A    42 A    40 B    41 B                  
  0.187   0.190   0.193   0.208   0.212   0.219   0.223   0.226
 43 A    42 B    43 B    44 A    44 B    45 A    45 B    46 A                  
  0.238   0.248   0.262   0.270   0.273   0.274   0.290   0.295
 47 A    46 B    47 B    48 A    49 A    48 B    50 A    49 B                  
  0.309   0.315   0.328   0.334   0.359   0.360   0.372   0.390
 50 B    51 B    51 A    52 A    53 A    52 B    53 B    54 A                  
  0.432   0.471   0.474   0.497   0.516   0.529   0.538   0.578
 54 B    55 A    55 B    56 A    57 A    56 B    57 B    58 B                  
  0.581   0.590   0.623   0.626   0.641   0.667   0.672   0.681
 58 A    59 A    59 B    60 A    60 B    61 B    61 A    62 A                  
  0.697   0.702   0.724   0.726   0.738   0.751   0.765   0.777
 63 A    62 B    63 B    64 A    64 B    65 B    65 A    66 B                  
  0.795   0.801   0.810   0.827   0.841   0.888   0.913   0.939
 66 A    67 B    67 A    68 A    68 B    69 A    69 B    70 A                  
  0.943   0.955   0.958   0.965   0.972   0.986   0.993   1.014
 70 B    71 B    71 A    72 B    72 A    73 A    73 B    74 B                  
  1.019   1.021   1.029   1.077   1.077   1.091   1.106   1.110
 75 B    74 A    75 A    76 B    76 A    77 A    77 B    78 A                  
  1.130   1.183   1.215   1.217   1.251   1.279   1.323   1.347
 78 B    79 A    79 B    80 A    80 B    81 A    81 B    82 A                  
  1.351   1.353   1.364   1.396   1.460   1.466   1.479   1.527
 82 B    83 A    83 B    84 A    84 B    85 A    85 B    86 A                  
  1.556   1.690   1.695   1.773   1.807   1.862   1.874   1.883
 86 B    87 A    87 B    88 A    89 A    88 B    90 A    89 B                  
  1.918   1.923   1.964   1.987   2.005   2.020   2.062   2.115
 90 B    91 A    92 A    91 B    93 A    92 B    93 B    94 A                  
  2.122   2.153   2.182   2.199   2.201   2.254   2.268   2.344
 95 A    94 B    95 B    96 A    96 B    97 B    97 A    98 A                  
  2.367   2.370   2.426   2.436   2.466   2.474   2.496   2.508
 99 A    98 B    99 B   100 A   101 A   100 B   101 B   102 A                  
  2.515   2.522   2.578   2.587   2.607   2.646   2.700   2.701
102 B   103 A   103 B   104 A   104 B   105 A   105 B   106 A                  
  2.753   2.839   2.855   2.881   2.932   3.165   3.174   3.269
106 B   107 A   107 B   108 A   108 B   109 B   109 A   110 B                  
  3.271   3.402   3.425   3.721   3.741   3.969   3.971   4.282
110 A   111 A   111 B   112 A   112 B   113 A   113 B   114 A                  
  4.304   4.319   4.327   4.435   4.535   4.660   4.710
115 A   114 B   115 B   116 A   116 B   117 A   117 B                          
 --------------------------------------------------------------
 
          Ground-State Mulliken Net Atomic Charges

     Atom                 Charge (a.u.)
  ----------------------------------------
      1 S                     0.064731
      2 C                    -0.050938
      3 C                    -0.360670
      4 C                     0.274195
      5 C                    -0.366211
      6 H                     0.132695
      7 C                    -0.366210
      8 S                     0.064731
      9 C                     0.274195
     10 C                    -0.050938
     11 C                    -0.360670
     12 H                     0.118984
     13 H                     0.187214
     14 H                     0.118984
     15 H                     0.187214
     16 H                     0.132695
  ----------------------------------------
  Sum of atomic charges =     0.000000

 -----------------------------------------------------------------
                    Cartesian Multipole Moments
 -----------------------------------------------------------------
    Charge (ESU x 10^10)
                 0.0000
    Dipole Moment (Debye)
         X       0.0000      Y      -0.0000      Z      -0.7095
       Tot       0.7095
    Quadrupole Moments (Debye-Ang)
        XX     -61.1244     XY       1.3344     YY     -72.2696
        XZ       0.0000     YZ       0.0000     ZZ     -74.2660
    Octopole Moments (Debye-Ang^2)
       XXX       0.0000    XXY      -0.0000    XYY       0.0000
       YYY      -0.0000    XXZ       5.5416    XYZ     -13.5124
       YYZ      -5.2544    XZZ       0.0000    YZZ      -0.0000
       ZZZ       3.0488
    Hexadecapole Moments (Debye-Ang^3)
      XXXX   -1893.5726   XXXY      -6.6018   XXYY    -420.4469
      XYYY       8.1139   YYYY    -406.8234   XXXZ       0.0000
      XXYZ      -0.0000   XYYZ       0.0000   YYYZ       0.0000
      XXZZ    -421.6196   XYZZ       7.0071   YYZZ    -104.3328
      XZZZ       0.0000   YZZZ       0.0000   ZZZZ    -304.3858
 -----------------------------------------------------------------
Archival summary:
1\1\nid01044\OPT\ProcedureUnspecified\BasisUnspecified\286\FriSep218:55:482016FriSep218:55:482016\0\\#,OPT,ProcedureUnspecified,BasisUnspecified,\\0,1\S\C,1,1.73176\H,2,1.08177,1,120.162\C,2,1.37076,1,111.666,3,-179.822,0\H,4,1.08409,2,123.405,1,179.796,0\C,4,1.42699,2,112.709,1,0.177715,0\H,6,1.0842,4,124.19,2,179.496,0\C,6,1.37592,4,113.508,2,-0.226387,0\C,8,1.4668,6,128.665,4,178.533,0\C,9,1.37592,8,128.665,6,-100,0\H,10,1.0842,9,122.301,8,-1.19517,0\C,10,1.42699,9,113.508,8,178.533,0\H,12,1.08409,10,123.885,9,-179.842,0\C,12,1.37076,10,112.709,9,-0.226387,0\H,14,1.08177,12,128.172,10,-179.627,0\S,14,1.73176,12,111.666,10,0.177715,0\\\@

 Total job time:  55.57s(wall), 61.44s(cpu) 
 Fri Sep  2 18:55:48 2016

        *************************************************************
        *                                                           *
        *  Thank you very much for using Q-Chem.  Have a nice day.  *
        *                                                           *
        *************************************************************


0 sent ACK to 0 
now end server 0 ... 
