srun -N 1 --ntasks-per-node 16 --nodelist nid01044 /global/project/projectdirs/jcesr/qchem/qc44/cnl_qc441/dist/exe/qcprog.cori.exe .pt_dft_70.0.in.51016.qcin.1 /dev/shm/eg_qchem/qchem51016/
Process 0 of 16 is on nid01044 - thread support 0
Process 1 of 16 is on nid01044 - thread support 0
Process 2 of 16 is on nid01044 - thread support 0
Process 3 of 16 is on nid01044 - thread support 0
Process 4 of 16 is on nid01044 - thread support 0
Process 5 of 16 is on nid01044 - thread support 0
Process 6 of 16 is on nid01044 - thread support 0
Process 15 of 16 is on nid01044 - thread support 0
initial socket setup ...start
initial socket setup ...done 
now start server 0 ... 
nid01044 10.128.4
Q-Chem Developer Version! Running on 10.128.4.*
                  Welcome to Q-Chem
     A Quantum Leap Into The Future Of Chemistry


 Q-Chem 4.4, Q-Chem, Inc., Pleasanton, CA (2016)

 Y. Shao,  Z. Gan,  E. Epifanovsky,  A. T. B. Gilbert,  M. Wormit,  
 J. Kussmann,  A. W. Lange,  A. Behn,  J. Deng,  X. Feng,  D. Ghosh,  
 M. Goldey,  P. R. Horn,  L. D. Jacobson,  I. Kaliman,  F.Rob,  
 R. Z. Khaliullin,  T. Kus,  A. Landau,  J. Liu,  E. I. Proynov,  Y. M. Rhee,  
 R. M. Richard,  M. A. Rohrdanz,  R. P. Steele,  E. J. Sundstrom,  
 H. L. Woodcock III,  P. M. Zimmerman,  D. Zuev,  B. Albrecht,  E. Alguire,  
 B. Austin,  S. A. Baeppler,  G. J. O. Beran,  Y. A. Bernard,  E. Berquist,  
 K. Brandhorst,  K. B. Bravaya,  S. T. Brown,  D. Casanova,  C.-M. Chang,  
 Y. Chen,  S. H. Chien,  K. D. Closser,  M. P. Coons,  D. L. Crittenden,  
 S. Dasgupta,  M. Diedenhofen,  R. A. DiStasio Jr.,  H. Do,  A. D. Dutoi,  
 R. G. Edgar,  P.-T. Fang,  S. Fatehi,  Q. Feng,  L. Fusti-Molnar,  
 A. Ghysels,  A. Golubeva-Zadorozhnaya,  J. Gomes,  A. Gunina,  
 M. W. D. Hanson-Heine,  P. H. P. Harbach,  A. W. Hauser,  E. G. Hohenstein,  
 Z. C. Holden,  K. Hui,  T.-C. Jagau,  H. Ji,  B. Kaduk,  K. Khistyaev,  
 Jaehoon Kim,  Jihan Kim,  R. A. King,  P. Klunzinger,  D. Kosenkov,  
 T. Kowalczyk,  C. M. Krauter,  A. Kunitsa,  K. U. Lao,  A. Laurent,  
 K. V. Lawler,  D. Lefrancois,  S. Lehtola,  S. V. Levchenko,  C. Y. Lin,  
 Y.-S. Lin,  F. Liu,  E. Livshits,  R. C. Lochan,  A. Luenser,  P. Manohar,  
 S. F. Manzer,  S.-P. Mao,  Y. Mao,  N. Mardirossian,  A. V. Marenich,  
 L. A. Martinez-Martinez,  S. A. Maurer,  N. J. Mayhall,  J.-M. Mewes,  
 A. F. Morrison,  K. Nanda,  C. M. Oana,  R. Olivares-Amaya,  D. P. O'Neill,  
 J. A. Parkhill,  T. M. Perrine,  R. Peverati,  P. A. Pieniazek,  F. Plasser,  
 A. Prociuk,  D. R. Rehn,  E. Rosta,  N. J. Russ,  N. Sergueev,  
 S. M. Sharada,  S. Sharma,  D. W. Small,  A. Sodt,  T. Stauch,  T. Stein,  
 D. Stuck,  Y.-C. Su,  A. J. W. Thom,  T. Tsuchimochi,  L. Vogt,  O. Vydrov,  
 T. Wang,  M. A. Watson,  J. Wenzel,  A. White,  C. F. Williams,  
 V. Vanovschi,  S. Yeganeh,  S. R. Yost,  Z.-Q. You,  I. Y. Zhang,  X. Zhang,  
 Y. Zhao,  B. R. Brooks,  G. K. L. Chan,  D. M. Chipman,  C. J. Cramer,  
 W. A. Goddard III,  M. S. Gordon,  W. J. Hehre,  A. Klamt,  
 H. F. Schaefer III,  M. W. Schmidt,  C. D. Sherrill,  D. G. Truhlar,  
 A. Warshel,  X. Xu,  A. Aspuru-Guzik,  R. Baer,  A. T. Bell,  N. A. Besley,  
 J.-D. Chai,  A. Dreuw,  B. D. Dunietz,  T. R. Furlani,  S. R. Gwaltney,  
 C.-P. Hsu,  Y. Jung,  J. Kong,  D. S. Lambrecht,  W. Liang,  C. Ochsenfeld,  
 V. A. Rassolov,  L. V. Slipchenko,  J. E. Subotnik,  T. Van Voorhis,  
 J. M. Herbert,  A. I. Krylov,  P. M. W. Gill,  M. Head-Gordon

 Contributors to earlier versions of Q-Chem not listed above: 
 R. D. Adamson,  J. Baker,  E. F. C. Byrd,  A. K. Chakraborty,  C.-L. Cheng,  
 H. Dachsel,  R. J. Doerksen,  G. Hawkins,  A. Heyden,  S. Hirata,  
 G. Kedziora,  F. J. Keil,  C. Kelley,  P. P. Korambath,  W. Kurlancheek,  
 A. M. Lee,  M. S. Lee,  D. Liotard,  I. Lotan,  P. E. Maslen,  N. Nair,  
 D. Neuhauser,  R. Olson,  B. Peters,  J. Ritchie,  N. E. Schultz,  
 N. Shenvi,  A. C. Simmonett,  K. S. Thanthiriwatte,  Q. Wu,  W. Zhang

 Please cite Q-Chem as follows:
 Y. Shao et al., Mol. Phys. 113, 184-215 (2015)
 DOI: 10.1080/00268976.2014.952696

 Q-Chem 4.4.1 for Intel X86 EM64T Linux

 Parts of Q-Chem use Armadillo 5.200.1 (Boston Tea Smuggler).
 http://arma.sourceforge.net/

 Q-Chem begins on Fri Sep  2 18:21:00 2016  

Host: nid01043
0

     Scratch files written to /dev/shm/eg_qchem/qchem51016.0//
 Parallel job on  16  processors

Checking the input file for inconsistencies... 	...done.

--------------------------------------------------------------
User input:
--------------------------------------------------------------
$comment
<SCF Fix Strategy>{
    "current_method_id": 0, 
    "methods": [
        "increase_iter", 
        "rca_diis", 
        "gwh", 
        "gdm", 
        "rca", 
        "core+rca", 
        "fon"
    ], 
    "version": 2.0
}</SCF Fix Strategy>
$end


$molecule
 0  1
 S           1.82267924       -1.19997629        0.28714109
 C           3.20006180       -0.17260711        0.06528466
 C           2.82980603        1.10216298       -0.25610036
 C           1.41909100        1.26345446       -0.34254814
 C           0.71738150        0.10901545       -0.08456145
 H           0.93627498        2.19419272       -0.61095402
 C          -0.71741859       -0.10899254       -0.08455524
 S          -1.57847122       -0.40742327        1.41305370
 C          -1.59155709       -0.12864378       -1.14624181
 C          -3.09351733       -0.52880304        0.58131294
 C          -2.94135439       -0.36826335       -0.76645930
 H          -3.76517403       -0.40874778       -1.46674215
 H           4.19429620       -0.57452886        0.18632814
 H           3.53860725        1.89960515       -0.43610218
 H          -3.99899888       -0.71098006        1.13953273
 H          -1.27712781        0.04880273       -2.16657201
$end


$rem
         jobtype = opt
        exchange = b3lyp
           basis = 6-31++g**
  max_scf_cycles = 200
      mem_static = 100
       mem_total = 1500
   scf_algorithm = diis
       scf_guess = sad
$end


$opt
CONSTRAINT
tors 4 5 7 9 70.0
ENDCONSTRAINT
$end

--------------------------------------------------------------
 Atom   8: ( -1.6864785232,  0.7222886667,  0.9471951422)
         ->( -1.6864786447,  0.7222887419,  0.9471950896)
 Atom  10: ( -3.1594782393,  0.1351740903,  0.2490126686)
         ->( -3.1594782375,  0.1351738990,  0.2490126026)
 Atom  11: ( -2.9215464078, -0.6299165558, -0.8570801440)
         ->( -2.9215462871, -0.6299168426, -0.8570800665)
 Atom   9: ( -1.5373819390, -0.7405557830, -1.1660343948)
         ->( -1.5373818421, -0.7405555014, -1.1660346465)
 Atom   7: ( -0.7232028751, -0.0593493326, -0.2915328882)
         ->( -0.7232028144, -0.0593492917, -0.2915328494)
 Atom  16: ( -1.1541357247, -1.2839084938, -2.0200349358)
         ->( -1.1541355800, -1.2839079004, -2.0200353533)
 Atom  14: (  3.7069257659,  1.0921009077, -1.4404142788)
         ->(  3.7069259662,  1.0921004286, -1.4404144181)
 Atom  15: ( -4.1062047580,  0.3916731333,  0.6991368491)
         ->( -4.1062048407,  0.3916727493,  0.6991367387)
 ----------------------------------------------------------------
             Standard Nuclear Orientation (Angstroms)
    I     Atom           X                Y                Z
 ----------------------------------------------------------------
    1      S       1.6864786447    -0.7222887419     0.9471950896
    2      C       3.1594782375    -0.1351738990     0.2490126026
    3      C       2.9215462871     0.6299168426    -0.8570800665
    4      C       1.5373818421     0.7405555014    -1.1660346465
    5      C       0.7232028144     0.0593492917    -0.2915328494
    6      H       1.1541355800     1.2839079004    -2.0200353533
    7      C      -0.7232028144    -0.0593492917    -0.2915328494
    8      S      -1.6864786447     0.7222887419     0.9471950896
    9      C      -1.5373818421    -0.7405555014    -1.1660346465
   10      C      -3.1594782375     0.1351738990     0.2490126026
   11      C      -2.9215462871    -0.6299168426    -0.8570800665
   12      H      -3.7069259662    -1.0921004286    -1.4404144181
   13      H       4.1062048407    -0.3916727493     0.6991367387
   14      H       3.7069259662     1.0921004286    -1.4404144181
   15      H      -4.1062048407     0.3916727493     0.6991367387
   16      H      -1.1541355800    -1.2839079004    -2.0200353533
 ----------------------------------------------------------------
 Molecular Point Group                 C2    NOp =  2
 Largest Abelian Subgroup              C2    NOp =  2
 Nuclear Repulsion Energy =   630.7918466144 hartrees
 There are       43 alpha and       43 beta electrons
 Requested basis set is 6-31++G(d,p)
 There are 76 shells and 234 basis functions

 Total QAlloc Memory Limit   1500 MB
 Mega-Array Size        98 MB
 MEM_STATIC part       100 MB
 A cutoff of  1.0D-11 yielded   2491 shell pairs
 There are     24591 function pairs
 
 -------------------------------------------------------
 OpenMP Integral Computing Module                       
 Release: version 1.0, May 2013, Q-Chem Inc. Pittsburgh 
 -------------------------------------------------------
 Integral Job Info:
 Integral job number is                      11
 Integral operator is                         1
 short-range coefficients                     0
 long-range coefficients              100000000
 Omega coefficients                           0
 if combine SR and LR in K                    0
 Integral screening is                        0
 Integral computing path is                   2
 max size of driver memory is            800000
 size of driver memory is                593474
 size of scratch memory is             15166112
 max col of scratch BK array               1296
 max len of scratch array in speh3          155
 max len of scratch index in speh4           18
 max int batch size is                      520
 min int batch size is                       52
 fixed nKL is                                52
 max L of basis functions is                  2
 order of int derivative is                   0
 number of shells is                         76
 number of basis is                         234
 number of cartesian basis is               234
 number of contracted shell pairs          2491
 number of primitive shell pairs           8037
 maxK2 (contraction) of shell pair           36
 max number of K2 of shell pair               1
 max number of CS2 of shell pair            258
 max number of PS2 of shell pair           1500
 mem total for path MDJ                   51834
 -------------------------------------------------------
 Smallest overlap matrix eigenvalue = 1.09E-06

 Q-Chem warning in module /project/projectdirs/jcesr/qchem/qc44/cnl_qc441/compile/cori/qc_src/stvman/mkSTV.C, line 257:

 Overlap eigenvalue is smaller than square root of threshold


 Scale SEOQF with 1.000000e-01/1.000000e-01/1.000000e-01

 Standard Electronic Orientation quadrupole field applied
 Nucleus-field energy     =     0.0000000098 hartrees
 Guess from superposition of atomic densities
 Warning:  Energy on first SCF cycle will be non-variational
 A restricted hybrid HF-DFT SCF calculation will be
 performed using Pulay DIIS extrapolation
 Exchange:     0.2000 Hartree-Fock + 0.0800 Slater + 0.7200 B88
 Correlation:  0.1900 VWN1RPA + 0.8100 LYP
 Using SG-1 standard quadrature grid
 SCF converges when DIIS error is below 1.0E-08
 ---------------------------------------
  Cycle       Energy         DIIS Error
 ---------------------------------------
    1   -1107.2313474819      4.44E-02
    2   -1101.0209390970      2.42E-02
    3   -1103.9750574283      1.77E-02
    4   -1102.1897842563      1.31E-02
    5   -1104.7655786108      1.06E-02
    6   -1104.8843173267      5.09E-03
    7   -1104.0587730805      7.83E-03
    8   -1104.6086766480      4.30E-03
    9   -1103.7668288817      6.51E-03
   10   -1103.7664532850      6.29E-03
   11   -1121.5652422339      1.29E-01
   12   -1119.6345821985      1.18E-01
   13   -1119.3502852432      1.13E-01
   14   -1117.1504413513      9.79E-02
   15   -1115.7975141111      8.72E-02
   16   -1103.0719103146      1.23E-02
   17   -1103.4679393082      6.21E-03
   18   -1103.2443027191      1.07E-02
   19   -1104.4400444857      1.32E-02
   20   -1109.5894316742      3.49E-02
   21   -1102.5664250689      1.09E-02
   22   -1103.5061317743      1.49E-02
   23   -1106.5701541544      1.57E-02
   24   -1105.6113491709      7.92E-03
   25   -1105.6084575188      8.62E-03
   26   -1105.6164747398      8.45E-03
   27   -1105.6476249509      8.83E-03
   28   -1093.9940921774      4.45E-02
   29   -1090.3387105596      6.45E-02
   30   -1090.2328452853      6.50E-02
   31   -1089.7047646164      6.75E-02
   32   -1103.2718216015      6.02E-03
   33   -1104.7888777447      1.29E-02
   34   -1104.9222118328      1.44E-02
   35   -1105.2281751519      1.67E-02
   36   -1105.2446888668      1.90E-02
   37   -1105.6256387098      2.20E-02
   38   -1105.6120020044      2.07E-02
   39   -1105.3210377922      1.80E-02
   40   -1105.5110253920      1.98E-02
   41   -1105.4430058470      1.89E-02
   42   -1104.8654765169      1.30E-02
   43   -1099.6799527341      4.49E-02
   44   -1099.0148978572      4.42E-02
   45   -1100.1577439661      3.39E-02
   46   -1096.2874339982      4.86E-02
   47   -1096.3065868682      4.86E-02
   48   -1098.7283181975      3.37E-02
   49   -1096.8606699425      4.10E-02
   50   -1102.9946899427      4.31E-02
   51   -1105.4885394023      4.97E-02
   52   -1106.0062876816      2.24E-02
   53   -1104.5475414860      8.25E-03
   54   -1102.7544002508      1.77E-02
   55   -1103.9354205026      6.27E-03
   56   -1104.8895237988      5.66E-03
   57   -1103.6028250491      4.48E-03
   58   -1103.4419223849      5.38E-03
   59   -1103.1578044279      9.39E-03
   60   -1103.8140109095      6.88E-03
   61   -1102.4309891805      1.04E-02
   62   -1101.8573315412      1.61E-02
   63   -1101.3630963755      2.25E-02
   64   -1102.0905876746      1.61E-02
   65   -1102.4591647366      1.33E-02
   66   -1104.1745048484      2.19E-02
   67   -1102.4221009499      2.18E-02
   68   -1103.2641954002      2.00E-02
   69   -1104.7115565446      2.73E-02
   70   -1104.5924710005      2.81E-02
   71   -1102.1906130655      1.07E-02
   72   -1103.9622893789      1.92E-02
   73   -1101.0606223552      1.77E-02
   74   -1101.9043254391      1.19E-02
   75   -1101.9598890537      1.25E-02
   76   -1105.2515412182      3.07E-02
   77   -1105.0353390101      2.86E-02
   78   -1104.7140939245      2.33E-02
   79   -1102.8503280001      8.70E-03
   80   -1102.7555642720      7.94E-03
   81   -1099.2717129845      3.19E-02
   82   -1101.7112816036      1.89E-02
   83   -1098.2183370802      2.79E-02
   84   -1095.0531294267      4.04E-02
   85   -1096.1522725716      3.56E-02
   86   -1093.0504965771      4.48E-02
   87   -1097.7990794601      2.66E-02
   88   -1108.5868523281      3.21E-02
   89   -1099.7602827161      2.95E-02
   90   -1102.7007245332      4.01E-02
   91   -1104.2488602902      4.61E-02
   92   -1107.6930888493      8.52E-02
   93   -1124.1471449139      1.50E-01
   94   -1114.1380598677      5.70E-02
   95   -1104.5933836407      5.01E-03
   96   -1104.6945040386      3.80E-03
   97   -1028.0523034257      3.74E-01
   98   -1097.3131601269      2.94E-02
   99   -1097.4162318398      5.02E-02
  100   -1099.3216759443      5.09E-02
  101   -1101.5581249995      4.78E-02
  102   -1076.1365539248      1.91E-01
  103   -1121.3093135875      6.99E-02
  104   -1112.8459702402      3.66E-02
  105   -1111.6092180390      2.97E-02
  106   -1107.5358388702      1.74E-02
  107   -1109.6847292145      2.26E-02
  108   -1108.5464566584      1.75E-02
  109   -1107.1413587385      1.14E-02
  110   -1118.2026981797      5.65E-02
  111   -1118.1865979068      5.55E-02
  112   -1083.9166417077      2.23E-01
  113   -1081.8056989440      2.42E-01
  114   -1081.0922796269      2.56E-01
  115   -1082.3788150678      2.42E-01
  116   -1081.3587335421      2.45E-01
  117   -1078.6043125781      2.62E-01
  118   -1081.7229713230      2.54E-01
  119   -1083.1884000800      2.39E-01
  120   -1085.4330231587      2.06E-01
  121   -1096.4155132450      1.73E-01
  122   -1103.0687389724      5.64E-02
  123   -1101.6143661060      2.57E-02
  124   -1104.6728308771      4.17E-03
  125   -1104.7907680366      2.34E-03
  126   -1104.8273104330      1.10E-03
  127   -1104.8367292771      2.90E-04
  128   -1104.8369981677      2.37E-04
  129   -1104.8374168276      2.88E-05
  130   -1104.8374237329      1.64E-05
  131   -1104.8374251764      5.00E-06
  132   -1104.8374241589      1.83E-06
  133   -1104.8374238022      2.49E-07
  134   -1104.8374238578      8.40E-08
  135   -1104.8374238573      2.08E-08
  136   -1104.8374235238      2.44E-08
  137   -1104.8374235557      1.07E-08
  138   -1104.8374242446      1.31E-08
  139   -1104.8374242240      1.23E-08
  140   -1104.8374239504      6.70E-09 Convergence criterion met
 ---------------------------------------
 SCF time:  CPU 62.01 s  wall 52.91 s
 SCF   energy in the final basis set = -1104.8374239504
 Total energy in the final basis set = -1104.8374239504
 
 --------------------------------------------------------------
             Orbital Energies (a.u.) and Symmetries
 --------------------------------------------------------------
 
 Alpha MOs, Restricted
 -- Occupied --                  
-88.918 -88.918 -10.235 -10.234 -10.223 -10.223 -10.203 -10.203
  1 B     1 A     2 A     2 B     3 B     3 A     4 A     4 B                  
-10.202 -10.202  -7.978  -7.978  -5.942  -5.942  -5.938  -5.938
  5 B     5 A     6 B     6 A     7 B     7 A     8 B     8 A                  
 -5.935  -5.935  -0.900  -0.878  -0.771  -0.744  -0.740  -0.705
  9 B     9 A    10 A    10 B    11 A    12 A    11 B    12 B                  
 -0.603  -0.570  -0.562  -0.535  -0.524  -0.478  -0.419  -0.415
 13 A    14 A    13 B    14 B    15 A    15 B    16 A    17 A                  
 -0.413  -0.406  -0.395  -0.375  -0.374  -0.352  -0.349  -0.264
 16 B    17 B    18 A    19 A    18 B    20 A    19 B    21 A                  
 -0.257  -0.256  -0.231
 20 B    21 B    22 A                                                          
 -- Virtual --                   
 -0.041  -0.026  -0.006  -0.002   0.006   0.014   0.019   0.026
 22 B    23 A    24 A    23 B    25 A    24 B    26 A    25 B                  
  0.026   0.035   0.035   0.043   0.045   0.046   0.065   0.066
 27 A    28 A    26 B    27 B    29 A    28 B    30 A    29 B                  
  0.071   0.072   0.086   0.101   0.102   0.105   0.107   0.116
 31 A    30 B    32 A    31 B    33 A    32 B    34 A    35 A                  
  0.117   0.118   0.123   0.130   0.132   0.134   0.139   0.144
 33 B    34 B    36 A    35 B    37 A    36 B    38 A    37 B                  
  0.147   0.151   0.160   0.162   0.163   0.174   0.178   0.183
 38 B    39 A    40 A    39 B    41 A    42 A    40 B    43 A                  
  0.185   0.189   0.195   0.204   0.213   0.219   0.224   0.229
 41 B    42 B    43 B    44 A    44 B    45 A    45 B    46 A                  
  0.241   0.251   0.258   0.264   0.272   0.276   0.300   0.302
 46 B    47 B    47 A    48 B    48 A    49 A    49 B    50 A                  
  0.310   0.316   0.325   0.332   0.355   0.367   0.374   0.397
 50 B    51 B    51 A    52 A    53 A    52 B    53 B    54 A                  
  0.433   0.468   0.473   0.504   0.524   0.526   0.553   0.573
 54 B    55 A    56 A    55 B    57 A    56 B    57 B    58 A                  
  0.581   0.592   0.612   0.646   0.651   0.655   0.669   0.675
 58 B    59 A    59 B    60 A    60 B    61 A    62 A    61 B                  
  0.690   0.699   0.725   0.727   0.740   0.759   0.765   0.775
 62 B    63 A    64 A    63 B    64 B    65 B    65 A    66 B                  
  0.779   0.803   0.806   0.828   0.843   0.899   0.907   0.940
 66 A    67 A    67 B    68 A    68 B    69 A    69 B    70 A                  
  0.952   0.960   0.963   0.966   0.973   0.987   0.990   1.017
 70 B    71 B    71 A    72 A    72 B    73 B    73 A    74 A                  
  1.017   1.030   1.044   1.055   1.083   1.100   1.102   1.104
 74 B    75 B    76 B    75 A    76 A    77 B    77 A    78 A                  
  1.132   1.184   1.209   1.222   1.240   1.282   1.331   1.347
 78 B    79 A    80 A    79 B    80 B    81 A    81 B    82 A                  
  1.352   1.355   1.359   1.393   1.445   1.469   1.510   1.525
 82 B    83 A    83 B    84 A    84 B    85 B    85 A    86 A                  
  1.581   1.693   1.695   1.795   1.814   1.860   1.885   1.888
 86 B    87 A    87 B    88 A    88 B    89 A    90 A    89 B                  
  1.916   1.927   1.945   1.964   2.020   2.028   2.071   2.080
 90 B    91 A    92 A    91 B    92 B    93 A    93 B    94 A                  
  2.137   2.169   2.186   2.211   2.221   2.255   2.261   2.326
 95 A    94 B    95 B    96 B    96 A    97 B    97 A    98 A                  
  2.367   2.372   2.438   2.447   2.469   2.473   2.495   2.514
 99 A    98 B    99 B   100 A   100 B   101 A   101 B   102 A                  
  2.518   2.539   2.590   2.591   2.634   2.635   2.703   2.710
102 B   103 A   103 B   104 A   105 A   104 B   105 B   106 A                  
  2.766   2.816   2.880   2.881   2.951   3.165   3.192   3.276
106 B   107 A   108 A   107 B   108 B   109 A   109 B   110 B                  
  3.278   3.409   3.434   3.728   3.751   3.963   3.979   4.281
110 A   111 A   111 B   112 A   112 B   113 A   113 B   114 A                  
  4.314   4.321   4.331   4.432   4.538   4.663   4.719
115 A   114 B   115 B   116 A   116 B   117 A   117 B                          
 
 Beta MOs, Restricted
 -- Occupied --                  
-88.918 -88.918 -10.235 -10.234 -10.223 -10.223 -10.203 -10.203
  1 B     1 A     2 A     2 B     3 B     3 A     4 A     4 B                  
-10.202 -10.202  -7.978  -7.978  -5.942  -5.942  -5.938  -5.938
  5 B     5 A     6 B     6 A     7 B     7 A     8 B     8 A                  
 -5.935  -5.935  -0.900  -0.878  -0.771  -0.744  -0.740  -0.705
  9 B     9 A    10 A    10 B    11 A    12 A    11 B    12 B                  
 -0.603  -0.570  -0.562  -0.535  -0.524  -0.478  -0.419  -0.415
 13 A    14 A    13 B    14 B    15 A    15 B    16 A    17 A                  
 -0.413  -0.406  -0.395  -0.375  -0.374  -0.352  -0.349  -0.264
 16 B    17 B    18 A    19 A    18 B    20 A    19 B    21 A                  
 -0.257  -0.256  -0.231
 20 B    21 B    22 A                                                          
 -- Virtual --                   
 -0.041  -0.026  -0.006  -0.002   0.006   0.014   0.019   0.026
 22 B    23 A    24 A    23 B    25 A    24 B    26 A    25 B                  
  0.026   0.035   0.035   0.043   0.045   0.046   0.065   0.066
 27 A    28 A    26 B    27 B    29 A    28 B    30 A    29 B                  
  0.071   0.072   0.086   0.101   0.102   0.105   0.107   0.116
 31 A    30 B    32 A    31 B    33 A    32 B    34 A    35 A                  
  0.117   0.118   0.123   0.130   0.132   0.134   0.139   0.144
 33 B    34 B    36 A    35 B    37 A    36 B    38 A    37 B                  
  0.147   0.151   0.160   0.162   0.163   0.174   0.178   0.183
 38 B    39 A    40 A    39 B    41 A    42 A    40 B    43 A                  
  0.185   0.189   0.195   0.204   0.213   0.219   0.224   0.229
 41 B    42 B    43 B    44 A    44 B    45 A    45 B    46 A                  
  0.241   0.251   0.258   0.264   0.272   0.276   0.300   0.302
 46 B    47 B    47 A    48 B    48 A    49 A    49 B    50 A                  
  0.310   0.316   0.325   0.332   0.355   0.367   0.374   0.397
 50 B    51 B    51 A    52 A    53 A    52 B    53 B    54 A                  
  0.433   0.468   0.473   0.504   0.524   0.526   0.553   0.573
 54 B    55 A    56 A    55 B    57 A    56 B    57 B    58 A                  
  0.581   0.592   0.612   0.646   0.651   0.655   0.669   0.675
 58 B    59 A    59 B    60 A    60 B    61 A    62 A    61 B                  
  0.690   0.699   0.725   0.727   0.740   0.759   0.765   0.775
 62 B    63 A    64 A    63 B    64 B    65 B    65 A    66 B                  
  0.779   0.803   0.806   0.828   0.843   0.899   0.907   0.940
 66 A    67 A    67 B    68 A    68 B    69 A    69 B    70 A                  
  0.952   0.960   0.963   0.966   0.973   0.987   0.990   1.017
 70 B    71 B    71 A    72 A    72 B    73 B    73 A    74 A                  
  1.017   1.030   1.044   1.055   1.083   1.100   1.102   1.104
 74 B    75 B    76 B    75 A    76 A    77 B    77 A    78 A                  
  1.132   1.184   1.209   1.222   1.240   1.282   1.331   1.347
 78 B    79 A    80 A    79 B    80 B    81 A    81 B    82 A                  
  1.352   1.355   1.359   1.393   1.445   1.469   1.510   1.525
 82 B    83 A    83 B    84 A    84 B    85 B    85 A    86 A                  
  1.581   1.693   1.695   1.795   1.814   1.860   1.885   1.888
 86 B    87 A    87 B    88 A    88 B    89 A    90 A    89 B                  
  1.916   1.927   1.945   1.964   2.020   2.028   2.071   2.080
 90 B    91 A    92 A    91 B    92 B    93 A    93 B    94 A                  
  2.137   2.169   2.186   2.211   2.221   2.255   2.261   2.326
 95 A    94 B    95 B    96 B    96 A    97 B    97 A    98 A                  
  2.367   2.372   2.438   2.447   2.469   2.473   2.495   2.514
 99 A    98 B    99 B   100 A   100 B   101 A   101 B   102 A                  
  2.518   2.539   2.590   2.591   2.634   2.635   2.703   2.710
102 B   103 A   103 B   104 A   105 A   104 B   105 B   106 A                  
  2.766   2.816   2.880   2.881   2.951   3.165   3.192   3.276
106 B   107 A   108 A   107 B   108 B   109 A   109 B   110 B                  
  3.278   3.409   3.434   3.728   3.751   3.963   3.979   4.281
110 A   111 A   111 B   112 A   112 B   113 A   113 B   114 A                  
  4.314   4.321   4.331   4.432   4.538   4.663   4.719
115 A   114 B   115 B   116 A   116 B   117 A   117 B                          
 --------------------------------------------------------------
 
          Ground-State Mulliken Net Atomic Charges

     Atom                 Charge (a.u.)
  ----------------------------------------
      1 S                     0.032513
      2 C                    -0.029848
      3 C                    -0.422714
      4 C                     0.354264
      5 C                    -0.376351
      6 H                     0.137376
      7 C                    -0.376351
      8 S                     0.032513
      9 C                     0.354264
     10 C                    -0.029848
     11 C                    -0.422714
     12 H                     0.116335
     13 H                     0.188425
     14 H                     0.116335
     15 H                     0.188425
     16 H                     0.137376
  ----------------------------------------
  Sum of atomic charges =    -0.000000

 -----------------------------------------------------------------
                    Cartesian Multipole Moments
 -----------------------------------------------------------------
    Charge (ESU x 10^10)
                -0.0000
    Dipole Moment (Debye)
         X      -0.0000      Y      -0.0000      Z      -0.8929
       Tot       0.8929
    Quadrupole Moments (Debye-Ang)
        XX     -61.0679     XY       1.1106     YY     -75.1926
        XZ      -0.0000     YZ      -0.0000     ZZ     -71.0867
    Octopole Moments (Debye-Ang^2)
       XXX      -0.0000    XXY      -0.0000    XYY      -0.0000
       YYY      -0.0000    XXZ       5.9210    XYZ     -13.4251
       YYZ      -2.3281    XZZ      -0.0000    YZZ      -0.0000
       ZZZ      -2.2962
    Hexadecapole Moments (Debye-Ang^3)
      XXXX   -1871.7575   XXXY      -4.9770   XXYY    -415.3817
      XYYY      -5.0306   YYYY    -274.7244   XXXZ       0.0000
      XXYZ      -0.0000   XYYZ      -0.0000   YYYZ      -0.0000
      XXZZ    -411.1610   XYZZ       9.2595   YYZZ    -105.6693
      XZZZ       0.0000   YZZZ       0.0000   ZZZZ    -426.0841
 -----------------------------------------------------------------
 Calculating analytic gradient of the SCF energy
 Gradient of SCF Energy
            1           2           3           4           5           6
    1  -0.0015039   0.0008572  -0.0021941   0.0017461  -0.0069223   0.0014416
    2   0.0010175   0.0014348  -0.0001363   0.0018151  -0.0009958  -0.0016860
    3  -0.0005291  -0.0043310   0.0030599   0.0025785  -0.0008889   0.0000018
            7           8           9          10          11          12
    1   0.0069223   0.0015039  -0.0017461  -0.0008572   0.0021941   0.0011323
    2   0.0009958  -0.0010175  -0.0018151  -0.0014348   0.0001363   0.0007494
    3  -0.0008889  -0.0005291   0.0025785  -0.0043310   0.0030599   0.0008235
           13          14          15          16
    1  -0.0017446  -0.0011323   0.0017446  -0.0014416
    2  -0.0003486  -0.0007494   0.0003486   0.0016860
    3  -0.0007148   0.0008235  -0.0007148   0.0000018
 Max gradient component =       6.922E-03
 RMS gradient           =       2.171E-03
 Gradient time:  CPU 1.94 s  wall 1.90 s
 Geometry Optimization Parameters
   NAtoms,    NIC,     NZ,  NCons,   NDum,   NFix, NCnnct, MaxDiis
       16     111       0       1       0       0       0       0


** CONSTRAINED OPTIMIZATION IN DELOCALIZED INTERNAL COORDINATES **
   Searching for a Minimum

   Optimization Cycle:   1

                       Coordinates (Angstroms)
     ATOM                X               Y               Z
      1  S         1.6864786447   -0.7222887419    0.9471950896
      2  C         3.1594782375   -0.1351738990    0.2490126026
      3  C         2.9215462871    0.6299168426   -0.8570800665
      4  C         1.5373818421    0.7405555014   -1.1660346465
      5  C         0.7232028144    0.0593492917   -0.2915328494
      6  H         1.1541355800    1.2839079004   -2.0200353533
      7  C        -0.7232028144   -0.0593492917   -0.2915328494
      8  S        -1.6864786447    0.7222887419    0.9471950896
      9  C        -1.5373818421   -0.7405555014   -1.1660346465
     10  C        -3.1594782375    0.1351738990    0.2490126026
     11  C        -2.9215462871   -0.6299168426   -0.8570800665
     12  H        -3.7069259662   -1.0921004286   -1.4404144181
     13  H         4.1062048407   -0.3916727493    0.6991367387
     14  H         3.7069259662    1.0921004286   -1.4404144181
     15  H        -4.1062048407    0.3916727493    0.6991367387
     16  H        -1.1541355800   -1.2839079004   -2.0200353533
   Point Group: c2    Number of degrees of freedom:    22


   Energy is  -1104.837423950

              Constraints and their Current Values
                                        Value     Constraint
   Dihedral:        4   5   7   9       70.000       70.000

 Attempting to Generate Delocalized Internal Coordinates

 21 Hessian modes will be used to form the next step
  Hessian Eigenvalues:
     0.045000    0.045000    0.045000    0.045002    0.045004    0.045013
     0.159937    0.159990    0.160000    0.221280    0.237833    0.249997
     0.296078    0.314672    0.357149    0.357543    0.360899    0.380793
     0.408411    0.470750    0.505998

 Minimum Search - Taking Simple RFO Step
 Searching for Lamda that Minimizes Along All modes
 Value Taken    Lamda =  -0.00081975
 Step Taken.  Stepsize is  0.082586

                             Maximum     Tolerance    Cnvgd?
         Gradient           0.008339      0.000300      NO
         Displacement       0.057309      0.001200      NO
         Energy change     *********      0.000001      NO


 New Cartesian Coordinates Obtained by Inverse Iteration

 Displacement from previous Coordinates is:  0.122595
 ----------------------------------------------------------------
             Standard Nuclear Orientation (Angstroms)
    I     Atom           X                Y                Z
 ----------------------------------------------------------------
    1      S       1.7025003472    -0.7283605907     0.9498971960
    2      C       3.1734666168    -0.1324152846     0.2534042085
    3      C       2.9319194933     0.6199575859    -0.8663581814
    4      C       1.5414474492     0.7307547159    -1.1689410494
    5      C       0.7302304524     0.0529242931    -0.2871777989
    6      H       1.1466381549     1.2816113847    -2.0153804318
    7      C      -0.7302304524    -0.0529242931    -0.2871777989
    8      S      -1.7025003472     0.7283605907     0.9498971960
    9      C      -1.5414474492    -0.7307547159    -1.1689410494
   10      C      -3.1734666168     0.1324152846     0.2534042085
   11      C      -2.9319194933    -0.6199575859    -0.8663581814
   12      H      -3.7161212853    -1.0854064206    -1.4530201262
   13      H       4.1246526755    -0.3752361260     0.7078232803
   14      H       3.7161212853     1.0854064206    -1.4530201262
   15      H      -4.1246526755     0.3752361260     0.7078232803
   16      H      -1.1466381549    -1.2816113847    -2.0153804318
 ----------------------------------------------------------------
 Molecular Point Group                 C2    NOp =  2
 Largest Abelian Subgroup              C2    NOp =  2
 Nuclear Repulsion Energy =   628.6901460743 hartrees
 There are       43 alpha and       43 beta electrons
 Applying Cartesian multipole field
    Component          Value
    ---------          -----
     (2,0,0)        1.00000E-11
     (0,2,0)        2.00000E-11
     (0,0,2)       -3.00000E-11
 Nucleus-field energy     =     0.0000000099 hartrees
 Requested basis set is 6-31++G(d,p)
 There are 76 shells and 234 basis functions
 A cutoff of  1.0D-11 yielded   2489 shell pairs
 There are     24583 function pairs
 Smallest overlap matrix eigenvalue = 1.21E-06

 Q-Chem warning in module /project/projectdirs/jcesr/qchem/qc44/cnl_qc441/compile/cori/qc_src/stvman/mkSTV.C, line 257:

 Overlap eigenvalue is smaller than square root of threshold

 Guess MOs from SCF MO coefficient file
 Reading MOs from coefficient file
 Reading MOs from coefficient file
 A restricted hybrid HF-DFT SCF calculation will be
 performed using Pulay DIIS extrapolation
 Exchange:     0.2000 Hartree-Fock + 0.0800 Slater + 0.7200 B88
 Correlation:  0.1900 VWN1RPA + 0.8100 LYP
 Using SG-1 standard quadrature grid
 SCF converges when DIIS error is below 1.0E-08
 Geometry optimization detected.  Setting ReadMinima to 0
 Setting SaveMinima to 0
 ---------------------------------------
  Cycle       Energy         DIIS Error
 ---------------------------------------
    1   -1104.8165354446      8.04E-04
    2   -1104.8376683006      1.52E-04
    3   -1104.8369493242      3.44E-04
    4   -1104.8378640259      2.73E-05
    5   -1104.8378693927      6.70E-06
    6   -1104.8378696202      3.23E-06
    7   -1104.8378696931      1.13E-06
    8   -1104.8378697026      4.06E-07
    9   -1104.8378697019      5.86E-08
   10   -1104.8378697030      1.93E-08
   11   -1104.8378697030      6.42E-09 Convergence criterion met
 ---------------------------------------
 SCF time:  CPU 5.85 s  wall 5.13 s
 SCF   energy in the final basis set = -1104.8378697030
 Total energy in the final basis set = -1104.8378697030
 
 --------------------------------------------------------------
             Orbital Energies (a.u.) and Symmetries
 --------------------------------------------------------------
 
 Alpha MOs, Restricted
 -- Occupied --                  
-88.919 -88.919 -10.236 -10.236 -10.225 -10.225 -10.204 -10.204
  1 B     1 A     2 A     2 B     3 B     3 A     4 A     4 B                  
-10.203 -10.203  -7.978  -7.978  -5.942  -5.942  -5.939  -5.939
  5 B     5 A     6 B     6 A     7 B     7 A     8 B     8 A                  
 -5.935  -5.935  -0.898  -0.877  -0.769  -0.743  -0.739  -0.705
  9 B     9 A    10 A    10 B    11 A    12 A    11 B    12 B                  
 -0.601  -0.570  -0.562  -0.534  -0.523  -0.477  -0.418  -0.414
 13 A    14 A    13 B    14 B    15 A    15 B    16 A    17 A                  
 -0.412  -0.405  -0.394  -0.375  -0.374  -0.351  -0.349  -0.263
 16 B    17 B    18 A    18 B    19 A    20 A    19 B    21 A                  
 -0.257  -0.256  -0.231
 20 B    21 B    22 A                                                          
 -- Virtual --                   
 -0.041  -0.026  -0.006  -0.002   0.006   0.014   0.019   0.026
 22 B    23 A    24 A    23 B    25 A    24 B    26 A    25 B                  
  0.026   0.035   0.035   0.042   0.045   0.046   0.065   0.065
 27 A    28 A    26 B    27 B    29 A    28 B    30 A    29 B                  
  0.071   0.072   0.086   0.100   0.102   0.105   0.107   0.116
 31 A    30 B    32 A    31 B    33 A    32 B    34 A    35 A                  
  0.117   0.117   0.122   0.130   0.132   0.133   0.139   0.144
 33 B    34 B    36 A    35 B    37 A    36 B    38 A    37 B                  
  0.145   0.149   0.159   0.161   0.163   0.174   0.178   0.182
 38 B    39 A    40 A    39 B    41 A    42 A    40 B    43 A                  
  0.184   0.189   0.195   0.203   0.212   0.219   0.224   0.229
 41 B    42 B    43 B    44 A    44 B    45 A    45 B    46 A                  
  0.239   0.250   0.258   0.264   0.272   0.275   0.299   0.302
 46 B    47 B    47 A    48 B    48 A    49 A    49 B    50 A                  
  0.308   0.315   0.323   0.331   0.355   0.366   0.372   0.395
 50 B    51 B    51 A    52 A    53 A    52 B    53 B    54 A                  
  0.433   0.467   0.473   0.500   0.524   0.524   0.553   0.573
 54 B    55 A    56 A    55 B    56 B    57 A    57 B    58 A                  
  0.580   0.593   0.609   0.644   0.649   0.654   0.669   0.674
 58 B    59 A    59 B    60 A    60 B    61 A    62 A    61 B                  
  0.689   0.699   0.725   0.726   0.737   0.759   0.764   0.774
 62 B    63 A    64 A    63 B    64 B    65 B    65 A    66 B                  
  0.776   0.802   0.804   0.828   0.842   0.898   0.905   0.942
 66 A    67 A    67 B    68 A    68 B    69 A    69 B    70 A                  
  0.953   0.960   0.961   0.966   0.971   0.989   0.989   1.015
 70 B    71 B    71 A    72 A    72 B    73 A    73 B    74 A                  
  1.017   1.028   1.043   1.052   1.081   1.099   1.101   1.104
 74 B    75 B    76 B    75 A    76 A    77 B    77 A    78 A                  
  1.129   1.183   1.206   1.220   1.238   1.282   1.327   1.348
 78 B    79 A    80 A    79 B    80 B    81 A    81 B    82 A                  
  1.352   1.358   1.358   1.389   1.446   1.462   1.505   1.523
 82 B    83 A    83 B    84 A    84 B    85 B    85 A    86 A                  
  1.576   1.692   1.693   1.787   1.810   1.861   1.880   1.883
 86 B    87 A    87 B    88 A    88 B    89 A    90 A    89 B                  
  1.912   1.923   1.941   1.960   2.017   2.021   2.064   2.080
 90 B    91 A    92 A    91 B    92 B    93 A    93 B    94 A                  
  2.133   2.164   2.184   2.209   2.215   2.248   2.254   2.320
 95 A    94 B    95 B    96 B    96 A    97 B    97 A    98 A                  
  2.365   2.370   2.433   2.444   2.464   2.471   2.490   2.513
 99 A    98 B    99 B   100 A   101 A   100 B   101 B   102 A                  
  2.513   2.533   2.584   2.585   2.628   2.630   2.695   2.705
102 B   103 A   104 A   103 B   105 A   104 B   105 B   106 A                  
  2.760   2.809   2.872   2.872   2.939   3.156   3.183   3.269
106 B   107 A   108 A   107 B   108 B   109 A   109 B   110 B                  
  3.271   3.402   3.426   3.719   3.742   3.961   3.977   4.278
110 A   111 A   111 B   112 A   112 B   113 A   113 B   114 A                  
  4.310   4.322   4.328   4.429   4.534   4.659   4.711
115 A   114 B   115 B   116 A   116 B   117 A   117 B                          
 
 Beta MOs, Restricted
 -- Occupied --                  
-88.919 -88.919 -10.236 -10.236 -10.225 -10.225 -10.204 -10.204
  1 B     1 A     2 A     2 B     3 B     3 A     4 A     4 B                  
-10.203 -10.203  -7.978  -7.978  -5.942  -5.942  -5.939  -5.939
  5 B     5 A     6 B     6 A     7 B     7 A     8 B     8 A                  
 -5.935  -5.935  -0.898  -0.877  -0.769  -0.743  -0.739  -0.705
  9 B     9 A    10 A    10 B    11 A    12 A    11 B    12 B                  
 -0.601  -0.570  -0.562  -0.534  -0.523  -0.477  -0.418  -0.414
 13 A    14 A    13 B    14 B    15 A    15 B    16 A    17 A                  
 -0.412  -0.405  -0.394  -0.375  -0.374  -0.351  -0.349  -0.263
 16 B    17 B    18 A    18 B    19 A    20 A    19 B    21 A                  
 -0.257  -0.256  -0.231
 20 B    21 B    22 A                                                          
 -- Virtual --                   
 -0.041  -0.026  -0.006  -0.002   0.006   0.014   0.019   0.026
 22 B    23 A    24 A    23 B    25 A    24 B    26 A    25 B                  
  0.026   0.035   0.035   0.042   0.045   0.046   0.065   0.065
 27 A    28 A    26 B    27 B    29 A    28 B    30 A    29 B                  
  0.071   0.072   0.086   0.100   0.102   0.105   0.107   0.116
 31 A    30 B    32 A    31 B    33 A    32 B    34 A    35 A                  
  0.117   0.117   0.122   0.130   0.132   0.133   0.139   0.144
 33 B    34 B    36 A    35 B    37 A    36 B    38 A    37 B                  
  0.145   0.149   0.159   0.161   0.163   0.174   0.178   0.182
 38 B    39 A    40 A    39 B    41 A    42 A    40 B    43 A                  
  0.184   0.189   0.195   0.203   0.212   0.219   0.224   0.229
 41 B    42 B    43 B    44 A    44 B    45 A    45 B    46 A                  
  0.239   0.250   0.258   0.264   0.272   0.275   0.299   0.302
 46 B    47 B    47 A    48 B    48 A    49 A    49 B    50 A                  
  0.308   0.315   0.323   0.331   0.355   0.366   0.372   0.395
 50 B    51 B    51 A    52 A    53 A    52 B    53 B    54 A                  
  0.433   0.467   0.473   0.500   0.524   0.524   0.553   0.573
 54 B    55 A    56 A    55 B    56 B    57 A    57 B    58 A                  
  0.580   0.593   0.609   0.644   0.649   0.654   0.669   0.674
 58 B    59 A    59 B    60 A    60 B    61 A    62 A    61 B                  
  0.689   0.699   0.725   0.726   0.737   0.759   0.764   0.774
 62 B    63 A    64 A    63 B    64 B    65 B    65 A    66 B                  
  0.776   0.802   0.804   0.828   0.842   0.898   0.905   0.942
 66 A    67 A    67 B    68 A    68 B    69 A    69 B    70 A                  
  0.953   0.960   0.961   0.966   0.971   0.989   0.989   1.015
 70 B    71 B    71 A    72 A    72 B    73 A    73 B    74 A                  
  1.017   1.028   1.043   1.052   1.081   1.099   1.101   1.104
 74 B    75 B    76 B    75 A    76 A    77 B    77 A    78 A                  
  1.129   1.183   1.206   1.220   1.238   1.282   1.327   1.348
 78 B    79 A    80 A    79 B    80 B    81 A    81 B    82 A                  
  1.352   1.358   1.358   1.389   1.446   1.462   1.505   1.523
 82 B    83 A    83 B    84 A    84 B    85 B    85 A    86 A                  
  1.576   1.692   1.693   1.787   1.810   1.861   1.880   1.883
 86 B    87 A    87 B    88 A    88 B    89 A    90 A    89 B                  
  1.912   1.923   1.941   1.960   2.017   2.021   2.064   2.080
 90 B    91 A    92 A    91 B    92 B    93 A    93 B    94 A                  
  2.133   2.164   2.184   2.209   2.215   2.248   2.254   2.320
 95 A    94 B    95 B    96 B    96 A    97 B    97 A    98 A                  
  2.365   2.370   2.433   2.444   2.464   2.471   2.490   2.513
 99 A    98 B    99 B   100 A   101 A   100 B   101 B   102 A                  
  2.513   2.533   2.584   2.585   2.628   2.630   2.695   2.705
102 B   103 A   104 A   103 B   105 A   104 B   105 B   106 A                  
  2.760   2.809   2.872   2.872   2.939   3.156   3.183   3.269
106 B   107 A   108 A   107 B   108 B   109 A   109 B   110 B                  
  3.271   3.402   3.426   3.719   3.742   3.961   3.977   4.278
110 A   111 A   111 B   112 A   112 B   113 A   113 B   114 A                  
  4.310   4.322   4.328   4.429   4.534   4.659   4.711
115 A   114 B   115 B   116 A   116 B   117 A   117 B                          
 --------------------------------------------------------------
 
          Ground-State Mulliken Net Atomic Charges

     Atom                 Charge (a.u.)
  ----------------------------------------
      1 S                     0.033573
      2 C                    -0.029690
      3 C                    -0.423584
      4 C                     0.347578
      5 C                    -0.372978
      6 H                     0.138712
      7 C                    -0.372978
      8 S                     0.033572
      9 C                     0.347578
     10 C                    -0.029690
     11 C                    -0.423584
     12 H                     0.116954
     13 H                     0.189438
     14 H                     0.116954
     15 H                     0.189438
     16 H                     0.138712
  ----------------------------------------
  Sum of atomic charges =     0.000000

 -----------------------------------------------------------------
                    Cartesian Multipole Moments
 -----------------------------------------------------------------
    Charge (ESU x 10^10)
                 0.0000
    Dipole Moment (Debye)
         X       0.0000      Y       0.0000      Z      -0.8730
       Tot       0.8730
    Quadrupole Moments (Debye-Ang)
        XX     -60.9790     XY       1.2135     YY     -75.2738
        XZ       0.0000     YZ       0.0000     ZZ     -71.1620
    Octopole Moments (Debye-Ang^2)
       XXX       0.0000    XXY       0.0000    XYY       0.0000
       YYY      -0.0000    XXZ       6.3406    XYZ     -13.4279
       YYZ      -2.3353    XZZ       0.0000    YZZ      -0.0000
       ZZZ      -2.2367
    Hexadecapole Moments (Debye-Ang^3)
      XXXX   -1887.7693   XXXY      -0.4375   XXYY    -420.1764
      XYYY      -2.4336   YYYY    -274.1205   XXXZ       0.0000
      XXYZ       0.0000   XYYZ       0.0000   YYYZ       0.0000
      XXZZ    -414.5909   XYZZ      10.3056   YYZZ    -106.0781
      XZZZ       0.0000   YZZZ       0.0000   ZZZZ    -429.3995
 -----------------------------------------------------------------
 Calculating analytic gradient of the SCF energy
 Gradient of SCF Energy
            1           2           3           4           5           6
    1   0.0000113   0.0010541  -0.0002999   0.0000950  -0.0011052   0.0002249
    2  -0.0003974   0.0000876  -0.0000613   0.0020803  -0.0013862  -0.0006678
    3  -0.0002558  -0.0000087   0.0002547   0.0015665  -0.0009344  -0.0006488
            7           8           9          10          11          12
    1   0.0011052  -0.0000113  -0.0000950  -0.0010541   0.0002999  -0.0001035
    2   0.0013862   0.0003974  -0.0020803  -0.0000876   0.0000613  -0.0000589
    3  -0.0009344  -0.0002558   0.0015665  -0.0000087   0.0002547  -0.0000801
           13          14          15          16
    1   0.0000159   0.0001035  -0.0000159  -0.0002249
    2  -0.0002368   0.0000589   0.0002368   0.0006678
    3   0.0001065  -0.0000801   0.0001065  -0.0006488
 Max gradient component =       2.080E-03
 RMS gradient           =       7.448E-04
 Gradient time:  CPU 1.88 s  wall 1.91 s
 Geometry Optimization Parameters
   NAtoms,    NIC,     NZ,  NCons,   NDum,   NFix, NCnnct, MaxDiis
       16     111       0       1       0       0       0       0

 Cartesian Hessian Update
 Hessian Updated using BFGS Update


** CONSTRAINED OPTIMIZATION IN DELOCALIZED INTERNAL COORDINATES **
   Searching for a Minimum

   Optimization Cycle:   2

                       Coordinates (Angstroms)
     ATOM                X               Y               Z
      1  S         1.7025003472   -0.7283605907    0.9498971960
      2  C         3.1734666168   -0.1324152846    0.2534042085
      3  C         2.9319194933    0.6199575859   -0.8663581814
      4  C         1.5414474492    0.7307547159   -1.1689410494
      5  C         0.7302304524    0.0529242931   -0.2871777989
      6  H         1.1466381549    1.2816113847   -2.0153804318
      7  C        -0.7302304524   -0.0529242931   -0.2871777989
      8  S        -1.7025003472    0.7283605907    0.9498971960
      9  C        -1.5414474492   -0.7307547159   -1.1689410494
     10  C        -3.1734666168    0.1324152846    0.2534042085
     11  C        -2.9319194933   -0.6199575859   -0.8663581814
     12  H        -3.7161212853   -1.0854064206   -1.4530201262
     13  H         4.1246526755   -0.3752361260    0.7078232803
     14  H         3.7161212853    1.0854064206   -1.4530201262
     15  H        -4.1246526755    0.3752361260    0.7078232803
     16  H        -1.1466381549   -1.2816113847   -2.0153804318
   Point Group: c2    Number of degrees of freedom:    22


   Energy is  -1104.837869703

              Constraints and their Current Values
                                        Value     Constraint
   Dihedral:        4   5   7   9       70.000       70.000
 Hessian Updated using BFGS Update

 21 Hessian modes will be used to form the next step
  Hessian Eigenvalues:
     0.037226    0.045000    0.045000    0.045001    0.045008    0.047125
     0.156881    0.159990    0.160019    0.218633    0.230043    0.245981
     0.299155    0.314743    0.357268    0.358506    0.362162    0.388730
     0.435832    0.468933    0.524839

 Minimum Search - Taking Simple RFO Step
 Searching for Lamda that Minimizes Along All modes
 Value Taken    Lamda =  -0.00008593
 Step Taken.  Stepsize is  0.039699

                             Maximum     Tolerance    Cnvgd?
         Gradient           0.001719      0.000300      NO
         Displacement       0.024451      0.001200      NO
         Energy change     -0.000446      0.000001      NO


 New Cartesian Coordinates Obtained by Inverse Iteration

 Displacement from previous Coordinates is:  0.047944
 ----------------------------------------------------------------
             Standard Nuclear Orientation (Angstroms)
    I     Atom           X                Y                Z
 ----------------------------------------------------------------
    1      S       1.7036838947    -0.7279438931     0.9546226256
    2      C       3.1715954970    -0.1331517663     0.2518044818
    3      C       2.9297081794     0.6153040984    -0.8709423752
    4      C       1.5385361498     0.7258070826    -1.1696147166
    5      C       0.7310374666     0.0495173748    -0.2839169049
    6      H       1.1381942493     1.2830602421    -2.0093066712
    7      C      -0.7310374666    -0.0495173748    -0.2839169049
    8      S      -1.7036838947     0.7279438931     0.9546226256
    9      C      -1.5385361498    -0.7258070826    -1.1696147166
   10      C      -3.1715954970     0.1331517663     0.2518044818
   11      C      -2.9297081794    -0.6153040984    -0.8709423752
   12      H      -3.7128044495    -1.0817350611    -1.4582779587
   13      H       4.1243613115    -0.3706331416     0.7058786162
   14      H       3.7128044495     1.0817350611    -1.4582779587
   15      H      -4.1243613115     0.3706331416     0.7058786162
   16      H      -1.1381942493    -1.2830602421    -2.0093066712
 ----------------------------------------------------------------
 Molecular Point Group                 C2    NOp =  2
 Largest Abelian Subgroup              C2    NOp =  2
 Nuclear Repulsion Energy =   628.7169560794 hartrees
 There are       43 alpha and       43 beta electrons
 Applying Cartesian multipole field
    Component          Value
    ---------          -----
     (2,0,0)        1.00000E-11
     (0,2,0)        2.00000E-11
     (0,0,2)       -3.00000E-11
 Nucleus-field energy     =     0.0000000098 hartrees
 Requested basis set is 6-31++G(d,p)
 There are 76 shells and 234 basis functions
 A cutoff of  1.0D-11 yielded   2491 shell pairs
 There are     24591 function pairs
 Smallest overlap matrix eigenvalue = 1.22E-06

 Q-Chem warning in module /project/projectdirs/jcesr/qchem/qc44/cnl_qc441/compile/cori/qc_src/stvman/mkSTV.C, line 257:

 Overlap eigenvalue is smaller than square root of threshold

 Guess MOs from SCF MO coefficient file
 Reading MOs from coefficient file
 Reading MOs from coefficient file
 A restricted hybrid HF-DFT SCF calculation will be
 performed using Pulay DIIS extrapolation
 Exchange:     0.2000 Hartree-Fock + 0.0800 Slater + 0.7200 B88
 Correlation:  0.1900 VWN1RPA + 0.8100 LYP
 Using SG-1 standard quadrature grid
 SCF converges when DIIS error is below 1.0E-08
 Geometry optimization detected.  Setting ReadMinima to 0
 Setting SaveMinima to 0
 ---------------------------------------
  Cycle       Energy         DIIS Error
 ---------------------------------------
    1   -1104.8372121431      2.68E-04
    2   -1104.8379015146      5.40E-05
    3   -1104.8378072354      1.25E-04
    4   -1104.8379245808      5.95E-06
    5   -1104.8379247965      2.44E-06
    6   -1104.8379248336      7.91E-07
    7   -1104.8379248361      3.18E-07
    8   -1104.8379248371      1.03E-07
    9   -1104.8379248388      2.29E-08
   10   -1104.8379248376      7.40E-09 Convergence criterion met
 ---------------------------------------
 SCF time:  CPU 5.28 s  wall 4.62 s
 SCF   energy in the final basis set = -1104.8379248376
 Total energy in the final basis set = -1104.8379248376
 
 --------------------------------------------------------------
             Orbital Energies (a.u.) and Symmetries
 --------------------------------------------------------------
 
 Alpha MOs, Restricted
 -- Occupied --                  
-88.919 -88.919 -10.236 -10.236 -10.225 -10.225 -10.204 -10.204
  1 B     1 A     2 A     2 B     3 B     3 A     4 A     4 B                  
-10.203 -10.203  -7.978  -7.978  -5.942  -5.942  -5.939  -5.939
  5 B     5 A     6 B     6 A     7 B     7 A     8 B     8 A                  
 -5.936  -5.936  -0.898  -0.877  -0.768  -0.744  -0.740  -0.705
  9 B     9 A    10 A    10 B    11 A    12 A    11 B    12 B                  
 -0.601  -0.570  -0.562  -0.534  -0.523  -0.477  -0.418  -0.414
 13 A    14 A    13 B    14 B    15 A    15 B    16 A    17 A                  
 -0.412  -0.405  -0.394  -0.375  -0.374  -0.352  -0.350  -0.264
 16 B    17 B    18 A    18 B    19 A    20 A    19 B    21 A                  
 -0.258  -0.256  -0.231
 20 B    21 B    22 A                                                          
 -- Virtual --                   
 -0.041  -0.025  -0.006  -0.002   0.006   0.014   0.019   0.025
 22 B    23 A    24 A    23 B    25 A    24 B    26 A    25 B                  
  0.026   0.035   0.035   0.042   0.045   0.046   0.065   0.065
 27 A    28 A    26 B    27 B    29 A    28 B    30 A    29 B                  
  0.071   0.072   0.086   0.100   0.102   0.105   0.107   0.116
 31 A    30 B    32 A    31 B    33 A    32 B    34 A    35 A                  
  0.117   0.117   0.122   0.130   0.132   0.133   0.139   0.144
 33 B    34 B    36 A    35 B    37 A    36 B    38 A    37 B                  
  0.145   0.149   0.159   0.161   0.163   0.174   0.178   0.182
 38 B    39 A    40 A    39 B    41 A    42 A    40 B    43 A                  
  0.184   0.189   0.195   0.203   0.212   0.219   0.224   0.229
 41 B    42 B    43 B    44 A    44 B    45 A    45 B    46 A                  
  0.239   0.250   0.258   0.263   0.272   0.275   0.298   0.302
 46 B    47 B    47 A    48 B    48 A    49 A    49 B    50 A                  
  0.308   0.314   0.324   0.331   0.355   0.365   0.372   0.395
 50 B    51 B    51 A    52 A    53 A    52 B    53 B    54 A                  
  0.433   0.467   0.474   0.500   0.524   0.524   0.553   0.573
 54 B    55 A    56 A    55 B    56 B    57 A    57 B    58 A                  
  0.579   0.593   0.608   0.644   0.649   0.654   0.669   0.674
 58 B    59 A    59 B    60 A    60 B    61 A    62 A    61 B                  
  0.689   0.699   0.725   0.726   0.737   0.759   0.764   0.774
 62 B    63 A    64 A    63 B    64 B    65 B    65 A    66 B                  
  0.776   0.802   0.804   0.827   0.843   0.898   0.905   0.943
 66 A    67 A    67 B    68 A    68 B    69 A    69 B    70 A                  
  0.953   0.959   0.961   0.967   0.971   0.989   0.990   1.014
 70 B    71 A    71 B    72 A    72 B    73 A    73 B    74 A                  
  1.017   1.028   1.041   1.051   1.081   1.099   1.101   1.104
 74 B    75 B    76 B    75 A    76 A    77 B    77 A    78 A                  
  1.130   1.184   1.207   1.220   1.238   1.284   1.326   1.349
 78 B    79 A    80 A    79 B    80 B    81 A    81 B    82 A                  
  1.353   1.359   1.360   1.389   1.447   1.462   1.501   1.525
 82 B    83 B    83 A    84 A    84 B    85 B    85 A    86 A                  
  1.574   1.692   1.693   1.786   1.809   1.864   1.880   1.882
 86 B    87 A    87 B    88 A    88 B    89 A    90 A    89 B                  
  1.912   1.924   1.942   1.961   2.018   2.021   2.064   2.082
 90 B    91 A    92 A    91 B    92 B    93 A    93 B    94 A                  
  2.133   2.165   2.185   2.210   2.216   2.248   2.253   2.322
 95 A    94 B    95 B    96 B    96 A    97 B    97 A    98 A                  
  2.366   2.370   2.433   2.444   2.461   2.473   2.490   2.512
 99 A    98 B    99 B   100 A   101 A   100 B   101 B   102 B                  
  2.513   2.532   2.584   2.584   2.628   2.629   2.695   2.706
102 A   103 A   104 A   103 B   105 A   104 B   105 B   106 A                  
  2.761   2.809   2.872   2.873   2.937   3.156   3.183   3.268
106 B   107 A   108 A   107 B   108 B   109 A   109 B   110 B                  
  3.271   3.401   3.425   3.719   3.742   3.961   3.977   4.279
110 A   111 A   111 B   112 A   112 B   113 A   113 B   114 A                  
  4.311   4.322   4.328   4.429   4.534   4.659   4.711
115 A   114 B   115 B   116 A   116 B   117 A   117 B                          
 
 Beta MOs, Restricted
 -- Occupied --                  
-88.919 -88.919 -10.236 -10.236 -10.225 -10.225 -10.204 -10.204
  1 B     1 A     2 A     2 B     3 B     3 A     4 A     4 B                  
-10.203 -10.203  -7.978  -7.978  -5.942  -5.942  -5.939  -5.939
  5 B     5 A     6 B     6 A     7 B     7 A     8 B     8 A                  
 -5.936  -5.936  -0.898  -0.877  -0.768  -0.744  -0.740  -0.705
  9 B     9 A    10 A    10 B    11 A    12 A    11 B    12 B                  
 -0.601  -0.570  -0.562  -0.534  -0.523  -0.477  -0.418  -0.414
 13 A    14 A    13 B    14 B    15 A    15 B    16 A    17 A                  
 -0.412  -0.405  -0.394  -0.375  -0.374  -0.352  -0.350  -0.264
 16 B    17 B    18 A    18 B    19 A    20 A    19 B    21 A                  
 -0.258  -0.256  -0.231
 20 B    21 B    22 A                                                          
 -- Virtual --                   
 -0.041  -0.025  -0.006  -0.002   0.006   0.014   0.019   0.025
 22 B    23 A    24 A    23 B    25 A    24 B    26 A    25 B                  
  0.026   0.035   0.035   0.042   0.045   0.046   0.065   0.065
 27 A    28 A    26 B    27 B    29 A    28 B    30 A    29 B                  
  0.071   0.072   0.086   0.100   0.102   0.105   0.107   0.116
 31 A    30 B    32 A    31 B    33 A    32 B    34 A    35 A                  
  0.117   0.117   0.122   0.130   0.132   0.133   0.139   0.144
 33 B    34 B    36 A    35 B    37 A    36 B    38 A    37 B                  
  0.145   0.149   0.159   0.161   0.163   0.174   0.178   0.182
 38 B    39 A    40 A    39 B    41 A    42 A    40 B    43 A                  
  0.184   0.189   0.195   0.203   0.212   0.219   0.224   0.229
 41 B    42 B    43 B    44 A    44 B    45 A    45 B    46 A                  
  0.239   0.250   0.258   0.263   0.272   0.275   0.298   0.302
 46 B    47 B    47 A    48 B    48 A    49 A    49 B    50 A                  
  0.308   0.314   0.324   0.331   0.355   0.365   0.372   0.395
 50 B    51 B    51 A    52 A    53 A    52 B    53 B    54 A                  
  0.433   0.467   0.474   0.500   0.524   0.524   0.553   0.573
 54 B    55 A    56 A    55 B    56 B    57 A    57 B    58 A                  
  0.579   0.593   0.608   0.644   0.649   0.654   0.669   0.674
 58 B    59 A    59 B    60 A    60 B    61 A    62 A    61 B                  
  0.689   0.699   0.725   0.726   0.737   0.759   0.764   0.774
 62 B    63 A    64 A    63 B    64 B    65 B    65 A    66 B                  
  0.776   0.802   0.804   0.827   0.843   0.898   0.905   0.943
 66 A    67 A    67 B    68 A    68 B    69 A    69 B    70 A                  
  0.953   0.959   0.961   0.967   0.971   0.989   0.990   1.014
 70 B    71 A    71 B    72 A    72 B    73 A    73 B    74 A                  
  1.017   1.028   1.041   1.051   1.081   1.099   1.101   1.104
 74 B    75 B    76 B    75 A    76 A    77 B    77 A    78 A                  
  1.130   1.184   1.207   1.220   1.238   1.284   1.326   1.349
 78 B    79 A    80 A    79 B    80 B    81 A    81 B    82 A                  
  1.353   1.359   1.360   1.389   1.447   1.462   1.501   1.525
 82 B    83 B    83 A    84 A    84 B    85 B    85 A    86 A                  
  1.574   1.692   1.693   1.786   1.809   1.864   1.880   1.882
 86 B    87 A    87 B    88 A    88 B    89 A    90 A    89 B                  
  1.912   1.924   1.942   1.961   2.018   2.021   2.064   2.082
 90 B    91 A    92 A    91 B    92 B    93 A    93 B    94 A                  
  2.133   2.165   2.185   2.210   2.216   2.248   2.253   2.322
 95 A    94 B    95 B    96 B    96 A    97 B    97 A    98 A                  
  2.366   2.370   2.433   2.444   2.461   2.473   2.490   2.512
 99 A    98 B    99 B   100 A   101 A   100 B   101 B   102 B                  
  2.513   2.532   2.584   2.584   2.628   2.629   2.695   2.706
102 A   103 A   104 A   103 B   105 A   104 B   105 B   106 A                  
  2.761   2.809   2.872   2.873   2.937   3.156   3.183   3.268
106 B   107 A   108 A   107 B   108 B   109 A   109 B   110 B                  
  3.271   3.401   3.425   3.719   3.742   3.961   3.977   4.279
110 A   111 A   111 B   112 A   112 B   113 A   113 B   114 A                  
  4.311   4.322   4.328   4.429   4.534   4.659   4.711
115 A   114 B   115 B   116 A   116 B   117 A   117 B                          
 --------------------------------------------------------------
 
          Ground-State Mulliken Net Atomic Charges

     Atom                 Charge (a.u.)
  ----------------------------------------
      1 S                     0.036371
      2 C                    -0.033930
      3 C                    -0.421820
      4 C                     0.343115
      5 C                    -0.368805
      6 H                     0.139062
      7 C                    -0.368805
      8 S                     0.036371
      9 C                     0.343115
     10 C                    -0.033930
     11 C                    -0.421820
     12 H                     0.117014
     13 H                     0.188992
     14 H                     0.117014
     15 H                     0.188992
     16 H                     0.139062
  ----------------------------------------
  Sum of atomic charges =    -0.000000

 -----------------------------------------------------------------
                    Cartesian Multipole Moments
 -----------------------------------------------------------------
    Charge (ESU x 10^10)
                -0.0000
    Dipole Moment (Debye)
         X       0.0000      Y       0.0000      Z      -0.8542
       Tot       0.8542
    Quadrupole Moments (Debye-Ang)
        XX     -61.0538     XY       1.2632     YY     -75.2476
        XZ      -0.0000     YZ      -0.0000     ZZ     -71.1674
    Octopole Moments (Debye-Ang^2)
       XXX       0.0000    XXY       0.0000    XYY       0.0000
       YYY       0.0000    XXZ       6.2595    XYZ     -13.3999
       YYZ      -2.4453    XZZ       0.0000    YZZ       0.0000
       ZZZ      -2.2835
    Hexadecapole Moments (Debye-Ang^3)
      XXXX   -1887.4659   XXXY       1.4180   XXYY    -419.9588
      XYYY      -1.2416   YYYY    -272.8830   XXXZ      -0.0000
      XXYZ      -0.0000   XYYZ      -0.0000   YYYZ      -0.0000
      XXZZ    -414.4657   XYZZ      10.6728   YYZZ    -106.1652
      XZZZ      -0.0000   YZZZ      -0.0000   ZZZZ    -431.3706
 -----------------------------------------------------------------
 Calculating analytic gradient of the SCF energy
 Gradient of SCF Energy
            1           2           3           4           5           6
    1   0.0000515  -0.0000549  -0.0000379  -0.0000840   0.0006016   0.0000274
    2  -0.0006064  -0.0000983  -0.0000407   0.0017485  -0.0019208  -0.0002849
    3   0.0003058   0.0001871  -0.0003842   0.0013459  -0.0010495  -0.0004036
            7           8           9          10          11          12
    1  -0.0006016  -0.0000515   0.0000840   0.0000549   0.0000379  -0.0000651
    2   0.0019208   0.0006064  -0.0017485   0.0000983   0.0000407  -0.0001909
    3  -0.0010495   0.0003058   0.0013459   0.0001871  -0.0003842  -0.0000919
           13          14          15          16
    1   0.0000649   0.0000651  -0.0000649  -0.0000274
    2  -0.0000449   0.0001909   0.0000449   0.0002849
    3   0.0000903  -0.0000919   0.0000903  -0.0004036
 Max gradient component =       1.921E-03
 RMS gradient           =       6.770E-04
 Gradient time:  CPU 1.88 s  wall 1.88 s
 Geometry Optimization Parameters
   NAtoms,    NIC,     NZ,  NCons,   NDum,   NFix, NCnnct, MaxDiis
       16     111       0       1       0       0       0       0

 Cartesian Hessian Update
 Hessian Updated using BFGS Update


** CONSTRAINED OPTIMIZATION IN DELOCALIZED INTERNAL COORDINATES **
   Searching for a Minimum

   Optimization Cycle:   3

                       Coordinates (Angstroms)
     ATOM                X               Y               Z
      1  S         1.7036838947   -0.7279438931    0.9546226256
      2  C         3.1715954970   -0.1331517663    0.2518044818
      3  C         2.9297081794    0.6153040984   -0.8709423752
      4  C         1.5385361498    0.7258070826   -1.1696147166
      5  C         0.7310374666    0.0495173748   -0.2839169049
      6  H         1.1381942493    1.2830602421   -2.0093066712
      7  C        -0.7310374666   -0.0495173748   -0.2839169049
      8  S        -1.7036838947    0.7279438931    0.9546226256
      9  C        -1.5385361498   -0.7258070826   -1.1696147166
     10  C        -3.1715954970    0.1331517663    0.2518044818
     11  C        -2.9297081794   -0.6153040984   -0.8709423752
     12  H        -3.7128044495   -1.0817350611   -1.4582779587
     13  H         4.1243613115   -0.3706331416    0.7058786162
     14  H         3.7128044495    1.0817350611   -1.4582779587
     15  H        -4.1243613115    0.3706331416    0.7058786162
     16  H        -1.1381942493   -1.2830602421   -2.0093066712
   Point Group: c2    Number of degrees of freedom:    22


   Energy is  -1104.837924838

              Constraints and their Current Values
                                        Value     Constraint
   Dihedral:        4   5   7   9       70.000       70.000
 Hessian Updated using BFGS Update

 21 Hessian modes will be used to form the next step
  Hessian Eigenvalues:
     0.023424    0.045000    0.045001    0.045007    0.045483    0.046653
     0.155317    0.160006    0.160483    0.222301    0.226150    0.278432
     0.297468    0.315066    0.357315    0.358385    0.361831    0.394255
     0.434043    0.477740    0.519483

 Minimum Search - Taking Simple RFO Step
 Searching for Lamda that Minimizes Along All modes
 Value Taken    Lamda =  -0.00002766
 Step Taken.  Stepsize is  0.031073

                             Maximum     Tolerance    Cnvgd?
         Gradient           0.000767      0.000300      NO
         Displacement       0.018882      0.001200      NO
         Energy change     -0.000055      0.000001      NO


 New Cartesian Coordinates Obtained by Inverse Iteration

 Displacement from previous Coordinates is:  0.027856
 ----------------------------------------------------------------
             Standard Nuclear Orientation (Angstroms)
    I     Atom           X                Y                Z
 ----------------------------------------------------------------
    1      S       1.7045911508    -0.7247813579     0.9569522011
    2      C       3.1718399644    -0.1329894086     0.2510349564
    3      C       2.9290402812     0.6125896256    -0.8729424192
    4      C       1.5373987502     0.7220613389    -1.1705801916
    5      C       0.7310292528     0.0472052173    -0.2829980266
    6      H       1.1344561348     1.2841939150    -2.0054653469
    7      C      -0.7310292528    -0.0472052173    -0.2829980266
    8      S      -1.7045911508     0.7247813579     0.9569522011
    9      C      -1.5373987502    -0.7220613389    -1.1705801916
   10      C      -3.1718399644     0.1329894086     0.2510349564
   11      C      -2.9290402812    -0.6125896256    -0.8729424192
   12      H      -3.7118071297    -1.0784975399    -1.4606213378
   13      H       4.1252940849    -0.3677036084     0.7048672617
   14      H       3.7118071297     1.0784975399    -1.4606213378
   15      H      -4.1252940849     0.3677036084     0.7048672617
   16      H      -1.1344561348    -1.2841939150    -2.0054653469
 ----------------------------------------------------------------
 Molecular Point Group                 C2    NOp =  2
 Largest Abelian Subgroup              C2    NOp =  2
 Nuclear Repulsion Energy =   628.8271654684 hartrees
 There are       43 alpha and       43 beta electrons
 Applying Cartesian multipole field
    Component          Value
    ---------          -----
     (2,0,0)        1.00000E-11
     (0,2,0)        2.00000E-11
     (0,0,2)       -3.00000E-11
 Nucleus-field energy     =     0.0000000098 hartrees
 Requested basis set is 6-31++G(d,p)
 There are 76 shells and 234 basis functions
 A cutoff of  1.0D-11 yielded   2491 shell pairs
 There are     24591 function pairs
 Smallest overlap matrix eigenvalue = 1.22E-06

 Q-Chem warning in module /project/projectdirs/jcesr/qchem/qc44/cnl_qc441/compile/cori/qc_src/stvman/mkSTV.C, line 257:

 Overlap eigenvalue is smaller than square root of threshold

 Guess MOs from SCF MO coefficient file
 Reading MOs from coefficient file
 Reading MOs from coefficient file
 A restricted hybrid HF-DFT SCF calculation will be
 performed using Pulay DIIS extrapolation
 Exchange:     0.2000 Hartree-Fock + 0.0800 Slater + 0.7200 B88
 Correlation:  0.1900 VWN1RPA + 0.8100 LYP
 Using SG-1 standard quadrature grid
 SCF converges when DIIS error is below 1.0E-08
 Geometry optimization detected.  Setting ReadMinima to 0
 Setting SaveMinima to 0
 ---------------------------------------
  Cycle       Energy         DIIS Error
 ---------------------------------------
    1   -1104.8383959550      1.79E-04
    2   -1104.8379366990      1.99E-05
    3   -1104.8379241705      4.58E-05
    4   -1104.8379402905      3.41E-06
    5   -1104.8379403616      1.93E-06
    6   -1104.8379403875      6.47E-07
    7   -1104.8379403915      2.83E-07
    8   -1104.8379403902      5.79E-08
    9   -1104.8379403883      1.22E-08
   10   -1104.8379403873      3.61E-09 Convergence criterion met
 ---------------------------------------
 SCF time:  CPU 5.20 s  wall 4.59 s
 SCF   energy in the final basis set = -1104.8379403873
 Total energy in the final basis set = -1104.8379403873
 
 --------------------------------------------------------------
             Orbital Energies (a.u.) and Symmetries
 --------------------------------------------------------------
 
 Alpha MOs, Restricted
 -- Occupied --                  
-88.919 -88.919 -10.236 -10.236 -10.225 -10.225 -10.204 -10.204
  1 B     1 A     2 A     2 B     3 B     3 A     4 A     4 B                  
-10.203 -10.203  -7.978  -7.978  -5.942  -5.942  -5.939  -5.939
  5 B     5 A     6 B     6 A     7 B     7 A     8 B     8 A                  
 -5.936  -5.936  -0.898  -0.877  -0.769  -0.744  -0.740  -0.705
  9 B     9 A    10 A    10 B    11 A    12 A    11 B    12 B                  
 -0.601  -0.570  -0.562  -0.534  -0.523  -0.477  -0.418  -0.414
 13 A    14 A    13 B    14 B    15 A    15 B    16 A    17 A                  
 -0.412  -0.405  -0.394  -0.375  -0.374  -0.352  -0.349  -0.264
 16 B    17 B    18 A    18 B    19 A    20 A    19 B    21 A                  
 -0.258  -0.256  -0.231
 20 B    21 B    22 A                                                          
 -- Virtual --                   
 -0.041  -0.025  -0.006  -0.002   0.006   0.014   0.019   0.025
 22 B    23 A    24 A    23 B    25 A    24 B    26 A    25 B                  
  0.026   0.035   0.035   0.042   0.045   0.046   0.064   0.065
 27 A    28 A    26 B    27 B    29 A    28 B    30 A    29 B                  
  0.071   0.072   0.086   0.100   0.102   0.105   0.107   0.116
 31 A    30 B    32 A    31 B    33 A    32 B    34 A    35 A                  
  0.117   0.117   0.122   0.130   0.132   0.133   0.139   0.144
 33 B    34 B    36 A    35 B    37 A    36 B    38 A    37 B                  
  0.145   0.149   0.159   0.162   0.163   0.174   0.178   0.182
 38 B    39 A    40 A    39 B    41 A    42 A    40 B    43 A                  
  0.184   0.189   0.195   0.203   0.213   0.219   0.224   0.229
 41 B    42 B    43 B    44 A    44 B    45 A    45 B    46 A                  
  0.239   0.250   0.258   0.263   0.273   0.275   0.298   0.302
 46 B    47 B    47 A    48 B    48 A    49 A    49 B    50 A                  
  0.309   0.314   0.324   0.331   0.355   0.365   0.372   0.395
 50 B    51 B    51 A    52 A    53 A    52 B    53 B    54 A                  
  0.433   0.466   0.474   0.500   0.524   0.525   0.553   0.573
 54 B    55 A    56 A    55 B    57 A    56 B    57 B    58 A                  
  0.579   0.593   0.608   0.643   0.649   0.653   0.669   0.674
 58 B    59 A    59 B    60 A    60 B    61 A    62 A    61 B                  
  0.689   0.699   0.725   0.727   0.737   0.758   0.764   0.775
 62 B    63 A    64 A    63 B    64 B    65 B    65 A    66 B                  
  0.775   0.802   0.804   0.827   0.843   0.898   0.905   0.944
 66 A    67 A    67 B    68 A    68 B    69 A    69 B    70 A                  
  0.954   0.958   0.962   0.967   0.971   0.990   0.991   1.015
 70 B    71 A    71 B    72 A    72 B    73 A    73 B    74 A                  
  1.017   1.029   1.041   1.051   1.081   1.099   1.101   1.105
 74 B    75 B    76 B    75 A    76 A    77 B    77 A    78 A                  
  1.130   1.184   1.206   1.220   1.238   1.285   1.325   1.349
 78 B    79 A    80 A    79 B    80 B    81 A    81 B    82 A                  
  1.353   1.360   1.361   1.390   1.448   1.462   1.497   1.527
 82 B    83 A    83 B    84 A    84 B    85 B    85 A    86 A                  
  1.573   1.692   1.693   1.786   1.807   1.865   1.880   1.882
 86 B    87 A    87 B    88 A    88 B    89 A    90 A    89 B                  
  1.913   1.925   1.943   1.961   2.018   2.020   2.064   2.083
 90 B    91 A    92 A    91 B    92 B    93 A    93 B    94 A                  
  2.132   2.166   2.186   2.211   2.216   2.248   2.253   2.323
 95 A    94 B    95 B    96 B    96 A    97 B    97 A    98 A                  
  2.366   2.371   2.433   2.445   2.460   2.475   2.490   2.512
 99 A    98 B    99 B   100 A   101 A   100 B   101 B   102 B                  
  2.514   2.532   2.584   2.585   2.629   2.629   2.695   2.706
102 A   103 A   104 A   103 B   105 A   104 B   105 B   106 A                  
  2.762   2.810   2.873   2.873   2.937   3.156   3.184   3.269
106 B   107 A   108 A   107 B   108 B   109 A   109 B   110 B                  
  3.271   3.402   3.425   3.720   3.743   3.960   3.977   4.280
110 A   111 A   111 B   112 A   112 B   113 A   113 B   114 A                  
  4.311   4.322   4.328   4.429   4.534   4.659   4.711
115 A   114 B   115 B   116 A   116 B   117 A   117 B                          
 
 Beta MOs, Restricted
 -- Occupied --                  
-88.919 -88.919 -10.236 -10.236 -10.225 -10.225 -10.204 -10.204
  1 B     1 A     2 A     2 B     3 B     3 A     4 A     4 B                  
-10.203 -10.203  -7.978  -7.978  -5.942  -5.942  -5.939  -5.939
  5 B     5 A     6 B     6 A     7 B     7 A     8 B     8 A                  
 -5.936  -5.936  -0.898  -0.877  -0.769  -0.744  -0.740  -0.705
  9 B     9 A    10 A    10 B    11 A    12 A    11 B    12 B                  
 -0.601  -0.570  -0.562  -0.534  -0.523  -0.477  -0.418  -0.414
 13 A    14 A    13 B    14 B    15 A    15 B    16 A    17 A                  
 -0.412  -0.405  -0.394  -0.375  -0.374  -0.352  -0.349  -0.264
 16 B    17 B    18 A    18 B    19 A    20 A    19 B    21 A                  
 -0.258  -0.256  -0.231
 20 B    21 B    22 A                                                          
 -- Virtual --                   
 -0.041  -0.025  -0.006  -0.002   0.006   0.014   0.019   0.025
 22 B    23 A    24 A    23 B    25 A    24 B    26 A    25 B                  
  0.026   0.035   0.035   0.042   0.045   0.046   0.064   0.065
 27 A    28 A    26 B    27 B    29 A    28 B    30 A    29 B                  
  0.071   0.072   0.086   0.100   0.102   0.105   0.107   0.116
 31 A    30 B    32 A    31 B    33 A    32 B    34 A    35 A                  
  0.117   0.117   0.122   0.130   0.132   0.133   0.139   0.144
 33 B    34 B    36 A    35 B    37 A    36 B    38 A    37 B                  
  0.145   0.149   0.159   0.162   0.163   0.174   0.178   0.182
 38 B    39 A    40 A    39 B    41 A    42 A    40 B    43 A                  
  0.184   0.189   0.195   0.203   0.213   0.219   0.224   0.229
 41 B    42 B    43 B    44 A    44 B    45 A    45 B    46 A                  
  0.239   0.250   0.258   0.263   0.273   0.275   0.298   0.302
 46 B    47 B    47 A    48 B    48 A    49 A    49 B    50 A                  
  0.309   0.314   0.324   0.331   0.355   0.365   0.372   0.395
 50 B    51 B    51 A    52 A    53 A    52 B    53 B    54 A                  
  0.433   0.466   0.474   0.500   0.524   0.525   0.553   0.573
 54 B    55 A    56 A    55 B    57 A    56 B    57 B    58 A                  
  0.579   0.593   0.608   0.643   0.649   0.653   0.669   0.674
 58 B    59 A    59 B    60 A    60 B    61 A    62 A    61 B                  
  0.689   0.699   0.725   0.727   0.737   0.758   0.764   0.775
 62 B    63 A    64 A    63 B    64 B    65 B    65 A    66 B                  
  0.775   0.802   0.804   0.827   0.843   0.898   0.905   0.944
 66 A    67 A    67 B    68 A    68 B    69 A    69 B    70 A                  
  0.954   0.958   0.962   0.967   0.971   0.990   0.991   1.015
 70 B    71 A    71 B    72 A    72 B    73 A    73 B    74 A                  
  1.017   1.029   1.041   1.051   1.081   1.099   1.101   1.105
 74 B    75 B    76 B    75 A    76 A    77 B    77 A    78 A                  
  1.130   1.184   1.206   1.220   1.238   1.285   1.325   1.349
 78 B    79 A    80 A    79 B    80 B    81 A    81 B    82 A                  
  1.353   1.360   1.361   1.390   1.448   1.462   1.497   1.527
 82 B    83 A    83 B    84 A    84 B    85 B    85 A    86 A                  
  1.573   1.692   1.693   1.786   1.807   1.865   1.880   1.882
 86 B    87 A    87 B    88 A    88 B    89 A    90 A    89 B                  
  1.913   1.925   1.943   1.961   2.018   2.020   2.064   2.083
 90 B    91 A    92 A    91 B    92 B    93 A    93 B    94 A                  
  2.132   2.166   2.186   2.211   2.216   2.248   2.253   2.323
 95 A    94 B    95 B    96 B    96 A    97 B    97 A    98 A                  
  2.366   2.371   2.433   2.445   2.460   2.475   2.490   2.512
 99 A    98 B    99 B   100 A   101 A   100 B   101 B   102 B                  
  2.514   2.532   2.584   2.585   2.629   2.629   2.695   2.706
102 A   103 A   104 A   103 B   105 A   104 B   105 B   106 A                  
[...]
  3.271   3.402   3.426   3.720   3.743   3.960   3.978   4.280
110 A   111 A   111 B   112 A   112 B   113 A   113 B   114 A                  
  4.311   4.322   4.329   4.429   4.534   4.659   4.711
115 A   114 B   115 B   116 A   116 B   117 A   117 B                          
 --------------------------------------------------------------
 
          Ground-State Mulliken Net Atomic Charges

     Atom                 Charge (a.u.)
  ----------------------------------------
      1 S                     0.034610
      2 C                    -0.035134
      3 C                    -0.422339
      4 C                     0.339612
      5 C                    -0.361959
      6 H                     0.139100
      7 C                    -0.361959
      8 S                     0.034610
      9 C                     0.339612
     10 C                    -0.035134
     11 C                    -0.422339
     12 H                     0.117073
     13 H                     0.189035
     14 H                     0.117073
     15 H                     0.189035
     16 H                     0.139100
  ----------------------------------------
  Sum of atomic charges =    -0.000000

 -----------------------------------------------------------------
                    Cartesian Multipole Moments
 -----------------------------------------------------------------
    Charge (ESU x 10^10)
                -0.0000
    Dipole Moment (Debye)
         X      -0.0000      Y       0.0000      Z      -0.8418
       Tot       0.8418
    Quadrupole Moments (Debye-Ang)
        XX     -61.0431     XY       1.2805     YY     -75.2672
        XZ      -0.0000     YZ      -0.0000     ZZ     -71.1579
    Octopole Moments (Debye-Ang^2)
       XXX      -0.0000    XXY       0.0000    XYY      -0.0000
       YYY      -0.0000    XXZ       6.2467    XYZ     -13.3212
       YYZ      -2.5273    XZZ      -0.0000    YZZ       0.0000
       ZZZ      -2.3240
    Hexadecapole Moments (Debye-Ang^3)
      XXXX   -1885.8475   XXXY       0.9178   XXYY    -419.8040
      XYYY      -2.0801   YYYY    -269.9717   XXXZ      -0.0000
      XXYZ      -0.0000   XYYZ      -0.0000   YYYZ      -0.0000
      XXZZ    -414.0753   XYZZ      10.3796   YYZZ    -106.1909
      XZZZ      -0.0000   YZZZ      -0.0000   ZZZZ    -433.7412
 -----------------------------------------------------------------
 Calculating analytic gradient of the SCF energy
 Gradient of SCF Energy
            1           2           3           4           5           6
    1  -0.0000156   0.0000290  -0.0000531  -0.0000400   0.0001238   0.0000062
    2   0.0000044   0.0000053   0.0000166   0.0013889  -0.0030300   0.0000247
    3  -0.0000276  -0.0000039   0.0000084   0.0009333  -0.0009262   0.0000188
            7           8           9          10          11          12
    1  -0.0001238   0.0000156   0.0000400  -0.0000290   0.0000531  -0.0000033
    2   0.0030300  -0.0000044  -0.0013889  -0.0000053  -0.0000166   0.0000086
    3  -0.0009262  -0.0000276   0.0009333  -0.0000039   0.0000084  -0.0000048
           13          14          15          16
    1  -0.0000101   0.0000033   0.0000101  -0.0000062
    2  -0.0000035  -0.0000086   0.0000035  -0.0000247
    3   0.0000020  -0.0000048   0.0000020   0.0000188
 Max gradient component =       3.030E-03
 RMS gradient           =       7.321E-04
 Gradient time:  CPU 1.88 s  wall 1.90 s
 Geometry Optimization Parameters
   NAtoms,    NIC,     NZ,  NCons,   NDum,   NFix, NCnnct, MaxDiis
       16     111       0       1       0       0       0       0

 Cartesian Hessian Update
 Hessian Updated using BFGS Update


** CONSTRAINED OPTIMIZATION IN DELOCALIZED INTERNAL COORDINATES **
   Searching for a Minimum

   Optimization Cycle:   7

                       Coordinates (Angstroms)
     ATOM                X               Y               Z
      1  S         1.7020075804   -0.7203206545    0.9587704492
      2  C         3.1705921472   -0.1292561018    0.2546024249
      3  C         2.9294607353    0.6125137866   -0.8722409778
      4  C         1.5388320433    0.7195208007   -1.1738315525
      5  C         0.7307319417    0.0459618520   -0.2862335956
      6  H         1.1378487865    1.2815938585   -2.0096703485
      7  C        -0.7307319417   -0.0459618520   -0.2862335956
      8  S        -1.7020075804    0.7203206545    0.9587704492
      9  C        -1.5388320433   -0.7195208007   -1.1738315525
     10  C        -3.1705921472    0.1292561018    0.2546024249
     11  C        -2.9294607353   -0.6125137866   -0.8722409778
     12  H        -3.7134552819   -1.0743524940   -1.4615568555
     13  H         4.1229476931   -0.3642510662    0.7104075530
     14  H         3.7134552819    1.0743524940   -1.4615568555
     15  H        -4.1229476931    0.3642510662    0.7104075530
     16  H        -1.1378487865   -1.2815938585   -2.0096703485
   Point Group: c2    Number of degrees of freedom:    22


   Energy is  -1104.837944774

              Constraints and their Current Values
                                        Value     Constraint
   Dihedral:        4   5   7   9       70.000       70.000
 Hessian Updated using BFGS Update

 21 Hessian modes will be used to form the next step
  Hessian Eigenvalues:
     0.010446    0.024459    0.044861    0.045002    0.045239    0.047433
     0.157201    0.160025    0.160364    0.222688    0.224440    0.279916
     0.293972    0.315904    0.357201    0.359629    0.362038    0.395689
     0.444148    0.474102    0.529878

 Minimum Search - Taking Simple RFO Step
 Searching for Lamda that Minimizes Along All modes
 Value Taken    Lamda =   0.00000000
 Step Taken.  Stepsize is  0.002809

                             Maximum     Tolerance    Cnvgd?
         Gradient           0.000067      0.000300     YES
         Displacement       0.002384      0.001200      NO
         Energy change     -0.000000      0.000001     YES

 Final energy is   -1104.83794477430     


 ******************************
 **  OPTIMIZATION CONVERGED  **
 ******************************

                       Coordinates (Angstroms)
     ATOM                X               Y               Z
      1  S         1.7020075804   -0.7203206545    0.9587704492
      2  C         3.1705921472   -0.1292561018    0.2546024249
      3  C         2.9294607353    0.6125137866   -0.8722409778
      4  C         1.5388320433    0.7195208007   -1.1738315525
      5  C         0.7307319417    0.0459618520   -0.2862335956
      6  H         1.1378487865    1.2815938585   -2.0096703485
      7  C        -0.7307319417   -0.0459618520   -0.2862335956
      8  S        -1.7020075804    0.7203206545    0.9587704492
      9  C        -1.5388320433   -0.7195208007   -1.1738315525
     10  C        -3.1705921472    0.1292561018    0.2546024249
     11  C        -2.9294607353   -0.6125137866   -0.8722409778
     12  H        -3.7134552819   -1.0743524940   -1.4615568555
     13  H         4.1229476931   -0.3642510662    0.7104075530
     14  H         3.7134552819    1.0743524940   -1.4615568555
     15  H        -4.1229476931    0.3642510662    0.7104075530
     16  H        -1.1378487865   -1.2815938585   -2.0096703485

Z-matrix Print:
$molecule
0 1
S 
C  1 1.732614
H  2 1.081648 1 120.060565
C  2 1.370454 1 111.696046 3 -179.884858 0
H  4 1.084083 2 123.388819 1 -179.883223 0
C  4 1.426974 2 112.695731 1 -0.464999 0
H  6 1.084131 4 124.212873 2 -178.560439 0
C  6 1.376422 4 113.525766 2 0.767008 0
C  8 1.464352 6 128.072857 4 -179.387141 0
C  9 1.376422 8 128.072857 6 -69.999983 0
H  10 1.084131 9 122.257822 8 -0.044821 0
C  10 1.426974 9 113.525766 8 -179.387141 0
H  12 1.084083 10 123.912708 9 -179.818320 0
C  12 1.370454 10 112.695731 9 0.767008 0
H  14 1.081648 12 128.243271 10 179.661887 0
S  14 1.732614 12 111.696046 10 -0.464999 0
$end

 
 --------------------------------------------------------------
             Orbital Energies (a.u.) and Symmetries
 --------------------------------------------------------------
 
 Alpha MOs, Restricted
 -- Occupied --                  
-88.919 -88.919 -10.236 -10.236 -10.225 -10.225 -10.204 -10.204
  1 B     1 A     2 A     2 B     3 B     3 A     4 A     4 B                  
-10.203 -10.203  -7.978  -7.978  -5.942  -5.942  -5.939  -5.939
  5 B     5 A     6 B     6 A     7 B     7 A     8 B     8 A                  
 -5.936  -5.936  -0.898  -0.877  -0.769  -0.744  -0.740  -0.705
  9 B     9 A    10 A    10 B    11 A    12 A    11 B    12 B                  
 -0.601  -0.570  -0.562  -0.534  -0.523  -0.477  -0.418  -0.414
 13 A    14 A    13 B    14 B    15 A    15 B    16 A    17 A                  
 -0.412  -0.405  -0.394  -0.375  -0.374  -0.352  -0.349  -0.264
 16 B    17 B    18 A    18 B    19 A    20 A    19 B    21 A                  
 -0.258  -0.256  -0.231
 20 B    21 B    22 A                                                          
 -- Virtual --                   
 -0.042  -0.025  -0.006  -0.002   0.006   0.014   0.019   0.026
 22 B    23 A    24 A    23 B    25 A    24 B    26 A    25 B                  
  0.026   0.035   0.035   0.042   0.045   0.046   0.064   0.065
 27 A    28 A    26 B    27 B    29 A    28 B    30 A    29 B                  
  0.071   0.072   0.086   0.100   0.102   0.104   0.106   0.116
 31 A    30 B    32 A    31 B    33 A    32 B    34 A    35 A                  
  0.117   0.117   0.122   0.130   0.132   0.133   0.139   0.144
 33 B    34 B    36 A    35 B    37 A    36 B    38 A    37 B                  
  0.146   0.149   0.159   0.162   0.163   0.174   0.178   0.182
 38 B    39 A    40 A    39 B    41 A    42 A    40 B    43 A                  
  0.184   0.189   0.195   0.203   0.213   0.219   0.224   0.229
 41 B    42 B    43 B    44 A    44 B    45 A    45 B    46 A                  
  0.239   0.250   0.259   0.263   0.273   0.275   0.298   0.302
 46 B    47 B    47 A    48 B    48 A    49 A    49 B    50 A                  
  0.309   0.315   0.324   0.331   0.355   0.365   0.372   0.395
 50 B    51 B    51 A    52 A    53 A    52 B    53 B    54 A                  
  0.433   0.466   0.474   0.500   0.524   0.525   0.553   0.573
 54 B    55 A    56 A    55 B    57 A    56 B    57 B    58 A                  
  0.579   0.593   0.608   0.643   0.650   0.653   0.669   0.674
 58 B    59 A    59 B    60 A    60 B    61 A    62 A    61 B                  
  0.690   0.699   0.725   0.727   0.737   0.758   0.763   0.775
 62 B    63 A    64 A    63 B    64 B    65 B    65 A    66 B                  
  0.775   0.802   0.804   0.827   0.842   0.898   0.905   0.944
 66 A    67 A    67 B    68 A    68 B    69 A    69 B    70 A                  
  0.954   0.958   0.962   0.966   0.971   0.990   0.991   1.015
 70 B    71 A    71 B    72 A    72 B    73 A    73 B    74 A                  
  1.017   1.029   1.041   1.051   1.081   1.099   1.101   1.105
 74 B    75 B    76 B    75 A    76 A    77 B    77 A    78 A                  
  1.130   1.183   1.206   1.220   1.238   1.285   1.325   1.349
 78 B    79 A    80 A    79 B    80 B    81 A    81 B    82 A                  
  1.353   1.360   1.361   1.391   1.448   1.462   1.496   1.527
 82 B    83 A    83 B    84 A    84 B    85 B    85 A    86 A                  
  1.573   1.692   1.693   1.787   1.806   1.866   1.880   1.882
 86 B    87 A    87 B    88 A    88 B    89 A    90 A    89 B                  
  1.913   1.925   1.943   1.961   2.018   2.020   2.064   2.083
 90 B    91 A    92 A    91 B    92 B    93 A    93 B    94 A                  
  2.132   2.165   2.186   2.211   2.216   2.249   2.253   2.323
 95 A    94 B    95 B    96 B    96 A    97 B    97 A    98 A                  
  2.366   2.371   2.434   2.444   2.460   2.476   2.490   2.512
 99 A    98 B    99 B   100 A   101 A   100 B   101 B   102 B                  
  2.514   2.531   2.584   2.585   2.628   2.630   2.695   2.706
102 A   103 A   104 A   103 B   104 B   105 A   105 B   106 A                  
  2.763   2.810   2.873   2.873   2.937   3.156   3.184   3.269
106 B   107 A   108 A   107 B   108 B   109 A   109 B   110 B                  
  3.271   3.402   3.426   3.720   3.743   3.960   3.978   4.280
110 A   111 A   111 B   112 A   112 B   113 A   113 B   114 A                  
  4.311   4.322   4.329   4.429   4.534   4.659   4.711
115 A   114 B   115 B   116 A   116 B   117 A   117 B                          
 
 Beta MOs, Restricted
 -- Occupied --                  
-88.919 -88.919 -10.236 -10.236 -10.225 -10.225 -10.204 -10.204
  1 B     1 A     2 A     2 B     3 B     3 A     4 A     4 B                  
-10.203 -10.203  -7.978  -7.978  -5.942  -5.942  -5.939  -5.939
  5 B     5 A     6 B     6 A     7 B     7 A     8 B     8 A                  
 -5.936  -5.936  -0.898  -0.877  -0.769  -0.744  -0.740  -0.705
  9 B     9 A    10 A    10 B    11 A    12 A    11 B    12 B                  
 -0.601  -0.570  -0.562  -0.534  -0.523  -0.477  -0.418  -0.414
 13 A    14 A    13 B    14 B    15 A    15 B    16 A    17 A                  
 -0.412  -0.405  -0.394  -0.375  -0.374  -0.352  -0.349  -0.264
 16 B    17 B    18 A    18 B    19 A    20 A    19 B    21 A                  
 -0.258  -0.256  -0.231
 20 B    21 B    22 A                                                          
 -- Virtual --                   
 -0.042  -0.025  -0.006  -0.002   0.006   0.014   0.019   0.026
 22 B    23 A    24 A    23 B    25 A    24 B    26 A    25 B                  
  0.026   0.035   0.035   0.042   0.045   0.046   0.064   0.065
 27 A    28 A    26 B    27 B    29 A    28 B    30 A    29 B                  
  0.071   0.072   0.086   0.100   0.102   0.104   0.106   0.116
 31 A    30 B    32 A    31 B    33 A    32 B    34 A    35 A                  
  0.117   0.117   0.122   0.130   0.132   0.133   0.139   0.144
 33 B    34 B    36 A    35 B    37 A    36 B    38 A    37 B                  
  0.146   0.149   0.159   0.162   0.163   0.174   0.178   0.182
 38 B    39 A    40 A    39 B    41 A    42 A    40 B    43 A                  
  0.184   0.189   0.195   0.203   0.213   0.219   0.224   0.229
 41 B    42 B    43 B    44 A    44 B    45 A    45 B    46 A                  
  0.239   0.250   0.259   0.263   0.273   0.275   0.298   0.302
 46 B    47 B    47 A    48 B    48 A    49 A    49 B    50 A                  
  0.309   0.315   0.324   0.331   0.355   0.365   0.372   0.395
 50 B    51 B    51 A    52 A    53 A    52 B    53 B    54 A                  
  0.433   0.466   0.474   0.500   0.524   0.525   0.553   0.573
 54 B    55 A    56 A    55 B    57 A    56 B    57 B    58 A                  
  0.579   0.593   0.608   0.643   0.650   0.653   0.669   0.674
 58 B    59 A    59 B    60 A    60 B    61 A    62 A    61 B                  
  0.690   0.699   0.725   0.727   0.737   0.758   0.763   0.775
 62 B    63 A    64 A    63 B    64 B    65 B    65 A    66 B                  
  0.775   0.802   0.804   0.827   0.842   0.898   0.905   0.944
 66 A    67 A    67 B    68 A    68 B    69 A    69 B    70 A                  
  0.954   0.958   0.962   0.966   0.971   0.990   0.991   1.015
 70 B    71 A    71 B    72 A    72 B    73 A    73 B    74 A                  
  1.017   1.029   1.041   1.051   1.081   1.099   1.101   1.105
 74 B    75 B    76 B    75 A    76 A    77 B    77 A    78 A                  
  1.130   1.183   1.206   1.220   1.238   1.285   1.325   1.349
 78 B    79 A    80 A    79 B    80 B    81 A    81 B    82 A                  
  1.353   1.360   1.361   1.391   1.448   1.462   1.496   1.527
 82 B    83 A    83 B    84 A    84 B    85 B    85 A    86 A                  
  1.573   1.692   1.693   1.787   1.806   1.866   1.880   1.882
 86 B    87 A    87 B    88 A    88 B    89 A    90 A    89 B                  
  1.913   1.925   1.943   1.961   2.018   2.020   2.064   2.083
 90 B    91 A    92 A    91 B    92 B    93 A    93 B    94 A                  
  2.132   2.165   2.186   2.211   2.216   2.249   2.253   2.323
 95 A    94 B    95 B    96 B    96 A    97 B    97 A    98 A                  
  2.366   2.371   2.434   2.444   2.460   2.476   2.490   2.512
 99 A    98 B    99 B   100 A   101 A   100 B   101 B   102 B                  
  2.514   2.531   2.584   2.585   2.628   2.630   2.695   2.706
102 A   103 A   104 A   103 B   104 B   105 A   105 B   106 A                  
  2.763   2.810   2.873   2.873   2.937   3.156   3.184   3.269
106 B   107 A   108 A   107 B   108 B   109 A   109 B   110 B                  
  3.271   3.402   3.426   3.720   3.743   3.960   3.978   4.280
110 A   111 A   111 B   112 A   112 B   113 A   113 B   114 A                  
  4.311   4.322   4.329   4.429   4.534   4.659   4.711
115 A   114 B   115 B   116 A   116 B   117 A   117 B                          
 --------------------------------------------------------------
 
          Ground-State Mulliken Net Atomic Charges

     Atom                 Charge (a.u.)
  ----------------------------------------
      1 S                     0.034610
      2 C                    -0.035134
      3 C                    -0.422339
      4 C                     0.339612
      5 C                    -0.361959
      6 H                     0.139100
      7 C                    -0.361959
      8 S                     0.034610
      9 C                     0.339612
     10 C                    -0.035134
     11 C                    -0.422339
     12 H                     0.117073
     13 H                     0.189035
     14 H                     0.117073
     15 H                     0.189035
     16 H                     0.139100
  ----------------------------------------
  Sum of atomic charges =    -0.000000

 -----------------------------------------------------------------
                    Cartesian Multipole Moments
 -----------------------------------------------------------------
    Charge (ESU x 10^10)
                -0.0000
    Dipole Moment (Debye)
         X      -0.0000      Y       0.0000      Z      -0.8418
       Tot       0.8418
    Quadrupole Moments (Debye-Ang)
        XX     -61.0431     XY       1.2805     YY     -75.2672
        XZ      -0.0000     YZ      -0.0000     ZZ     -71.1579
    Octopole Moments (Debye-Ang^2)
       XXX      -0.0000    XXY       0.0000    XYY      -0.0000
       YYY      -0.0000    XXZ       6.2467    XYZ     -13.3212
       YYZ      -2.5273    XZZ      -0.0000    YZZ       0.0000
       ZZZ      -2.3240
    Hexadecapole Moments (Debye-Ang^3)
      XXXX   -1885.8475   XXXY       0.9178   XXYY    -419.8040
      XYYY      -2.0801   YYYY    -269.9717   XXXZ      -0.0000
      XXYZ      -0.0000   XYYZ      -0.0000   YYYZ      -0.0000
      XXZZ    -414.0753   XYZZ      10.3796   YYZZ    -106.1909
      XZZZ      -0.0000   YZZZ      -0.0000   ZZZZ    -433.7412
 -----------------------------------------------------------------
Archival summary:
1\1\nid01044\OPT\ProcedureUnspecified\BasisUnspecified\286\FriSep218:22:342016FriSep218:22:342016\0\\#,OPT,ProcedureUnspecified,BasisUnspecified,\\0,1\S\C,1,1.73261\H,2,1.08165,1,120.061\C,2,1.37045,1,111.696,3,-179.885,0\H,4,1.08408,2,123.389,1,-179.883,0\C,4,1.42697,2,112.696,1,-0.464999,0\H,6,1.08413,4,124.213,2,-178.56,0\C,6,1.37642,4,113.526,2,0.767008,0\C,8,1.46435,6,128.073,4,-179.387,0\C,9,1.37642,8,128.073,6,-70,0\H,10,1.08413,9,122.258,8,-0.0448207,0\C,10,1.42697,9,113.526,8,-179.387,0\H,12,1.08408,10,123.913,9,-179.818,0\C,12,1.37045,10,112.696,9,0.767008,0\H,14,1.08165,12,128.243,10,179.662,0\S,14,1.73261,12,111.696,10,-0.464999,0\\\@

 Total job time:  94.01s(wall), 106.69s(cpu) 
 Fri Sep  2 18:22:34 2016

        *************************************************************
        *                                                           *
        *  Thank you very much for using Q-Chem.  Have a nice day.  *
        *                                                           *
        *************************************************************


0 sent ACK to 0 
now end server 0 ... 
