srun -N 1 --ntasks-per-node 16 --nodelist nid01043 /global/project/projectdirs/jcesr/qchem/qc44/cnl_qc441/dist/exe/qcprog.cori.exe .pt_dft_140.0.in.46083.qcin.1 /dev/shm/eg_qchem/qchem46083/
Process 0 of 16 is on nid01043 - thread support 0
Process 1 of 16 is on nid01043 - thread support 0
Process 2 of 16 is on nid01043 - thread support 0
Process 3 of 16 is on nid01043 - thread support 0
Process 4 of 16 is on nid01043 - thread support 0
Process 5 of 16 is on nid01043 - thread support 0
Process 6 of 16 is on nid01043 - thread support 0
Process 15 of 16 is on nid01043 - thread support 0
initial socket setup ...start
initial socket setup ...done 
now start server 0 ... 
nid01043 10.128.4
Q-Chem Developer Version! Running on 10.128.4.*
                  Welcome to Q-Chem
     A Quantum Leap Into The Future Of Chemistry


 Q-Chem 4.4, Q-Chem, Inc., Pleasanton, CA (2016)

 Y. Shao,  Z. Gan,  E. Epifanovsky,  A. T. B. Gilbert,  M. Wormit,  
 J. Kussmann,  A. W. Lange,  A. Behn,  J. Deng,  X. Feng,  D. Ghosh,  
 M. Goldey,  P. R. Horn,  L. D. Jacobson,  I. Kaliman,  F.Rob,  
 R. Z. Khaliullin,  T. Kus,  A. Landau,  J. Liu,  E. I. Proynov,  Y. M. Rhee,  
 R. M. Richard,  M. A. Rohrdanz,  R. P. Steele,  E. J. Sundstrom,  
 H. L. Woodcock III,  P. M. Zimmerman,  D. Zuev,  B. Albrecht,  E. Alguire,  
 B. Austin,  S. A. Baeppler,  G. J. O. Beran,  Y. A. Bernard,  E. Berquist,  
 K. Brandhorst,  K. B. Bravaya,  S. T. Brown,  D. Casanova,  C.-M. Chang,  
 Y. Chen,  S. H. Chien,  K. D. Closser,  M. P. Coons,  D. L. Crittenden,  
 S. Dasgupta,  M. Diedenhofen,  R. A. DiStasio Jr.,  H. Do,  A. D. Dutoi,  
 R. G. Edgar,  P.-T. Fang,  S. Fatehi,  Q. Feng,  L. Fusti-Molnar,  
 A. Ghysels,  A. Golubeva-Zadorozhnaya,  J. Gomes,  A. Gunina,  
 M. W. D. Hanson-Heine,  P. H. P. Harbach,  A. W. Hauser,  E. G. Hohenstein,  
 Z. C. Holden,  K. Hui,  T.-C. Jagau,  H. Ji,  B. Kaduk,  K. Khistyaev,  
 Jaehoon Kim,  Jihan Kim,  R. A. King,  P. Klunzinger,  D. Kosenkov,  
 T. Kowalczyk,  C. M. Krauter,  A. Kunitsa,  K. U. Lao,  A. Laurent,  
 K. V. Lawler,  D. Lefrancois,  S. Lehtola,  S. V. Levchenko,  C. Y. Lin,  
 Y.-S. Lin,  F. Liu,  E. Livshits,  R. C. Lochan,  A. Luenser,  P. Manohar,  
 S. F. Manzer,  S.-P. Mao,  Y. Mao,  N. Mardirossian,  A. V. Marenich,  
 L. A. Martinez-Martinez,  S. A. Maurer,  N. J. Mayhall,  J.-M. Mewes,  
 A. F. Morrison,  K. Nanda,  C. M. Oana,  R. Olivares-Amaya,  D. P. O'Neill,  
 J. A. Parkhill,  T. M. Perrine,  R. Peverati,  P. A. Pieniazek,  F. Plasser,  
 A. Prociuk,  D. R. Rehn,  E. Rosta,  N. J. Russ,  N. Sergueev,  
 S. M. Sharada,  S. Sharma,  D. W. Small,  A. Sodt,  T. Stauch,  T. Stein,  
 D. Stuck,  Y.-C. Su,  A. J. W. Thom,  T. Tsuchimochi,  L. Vogt,  O. Vydrov,  
 T. Wang,  M. A. Watson,  J. Wenzel,  A. White,  C. F. Williams,  
 V. Vanovschi,  S. Yeganeh,  S. R. Yost,  Z.-Q. You,  I. Y. Zhang,  X. Zhang,  
 Y. Zhao,  B. R. Brooks,  G. K. L. Chan,  D. M. Chipman,  C. J. Cramer,  
 W. A. Goddard III,  M. S. Gordon,  W. J. Hehre,  A. Klamt,  
 H. F. Schaefer III,  M. W. Schmidt,  C. D. Sherrill,  D. G. Truhlar,  
 A. Warshel,  X. Xu,  A. Aspuru-Guzik,  R. Baer,  A. T. Bell,  N. A. Besley,  
 J.-D. Chai,  A. Dreuw,  B. D. Dunietz,  T. R. Furlani,  S. R. Gwaltney,  
 C.-P. Hsu,  Y. Jung,  J. Kong,  D. S. Lambrecht,  W. Liang,  C. Ochsenfeld,  
 V. A. Rassolov,  L. V. Slipchenko,  J. E. Subotnik,  T. Van Voorhis,  
 J. M. Herbert,  A. I. Krylov,  P. M. W. Gill,  M. Head-Gordon

 Contributors to earlier versions of Q-Chem not listed above: 
 R. D. Adamson,  J. Baker,  E. F. C. Byrd,  A. K. Chakraborty,  C.-L. Cheng,  
 H. Dachsel,  R. J. Doerksen,  G. Hawkins,  A. Heyden,  S. Hirata,  
 G. Kedziora,  F. J. Keil,  C. Kelley,  P. P. Korambath,  W. Kurlancheek,  
 A. M. Lee,  M. S. Lee,  D. Liotard,  I. Lotan,  P. E. Maslen,  N. Nair,  
 D. Neuhauser,  R. Olson,  B. Peters,  J. Ritchie,  N. E. Schultz,  
 N. Shenvi,  A. C. Simmonett,  K. S. Thanthiriwatte,  Q. Wu,  W. Zhang

 Please cite Q-Chem as follows:
 Y. Shao et al., Mol. Phys. 113, 184-215 (2015)
 DOI: 10.1080/00268976.2014.952696

 Q-Chem 4.4.1 for Intel X86 EM64T Linux

 Parts of Q-Chem use Armadillo 5.200.1 (Boston Tea Smuggler).
 http://arma.sourceforge.net/

 Q-Chem begins on Fri Sep  2 18:09:37 2016  

Host: nid01043
0

     Scratch files written to /dev/shm/eg_qchem/qchem46083.0//
 Parallel job on  16  processors

Checking the input file for inconsistencies... 	...done.

--------------------------------------------------------------
User input:
--------------------------------------------------------------
$comment
<SCF Fix Strategy>{
    "current_method_id": 0, 
    "methods": [
        "increase_iter", 
        "rca_diis", 
        "gwh", 
        "gdm", 
        "rca", 
        "core+rca", 
        "fon"
    ], 
    "version": 2.0
}</SCF Fix Strategy>
$end


$molecule
 0  1
 S           1.82267924       -1.19997629        0.28714109
 C           3.20006180       -0.17260711        0.06528466
 C           2.82980603        1.10216298       -0.25610036
 C           1.41909100        1.26345446       -0.34254814
 C           0.71738150        0.10901545       -0.08456145
 H           0.93627498        2.19419272       -0.61095402
 C          -0.71741859       -0.10899254       -0.08455524
 S          -1.80625393        1.09168454        0.58336482
 C          -1.43062800       -1.18776723       -0.55280750
 C          -3.19325504        0.12760085        0.19779900
 C          -2.83740935       -1.05235764       -0.39083361
 H          -3.55409938       -1.79789505       -0.70902101
 H           4.19429620       -0.57452886        0.18632814
 H           3.53860725        1.89960515       -0.43610218
 H          -4.18189337        0.49270340        0.43015440
 H          -0.95949572       -2.04163174       -1.02225028
$end


$rem
         jobtype = opt
        exchange = b3lyp
           basis = 6-31++g**
  max_scf_cycles = 200
      mem_static = 100
       mem_total = 1500
   scf_algorithm = diis
       scf_guess = sad
$end


$opt
CONSTRAINT
tors 4 5 7 9 140.0
ENDCONSTRAINT
$end

--------------------------------------------------------------
 Atom   8: ( -1.8210406516,  1.1449733800,  0.4016940434)
         ->( -1.8210408090,  1.1449734415,  0.4016939237)
 Atom  10: ( -3.1978682972,  0.1385086778,  0.0963010517)
         ->( -3.1978682963,  0.1385084923,  0.0963010614)
 Atom  11: ( -2.8279619422, -1.0940713405, -0.3612274498)
         ->( -2.8279617827, -1.0940715096, -0.3612272533)
 Atom   9: ( -1.4182242767, -1.2377556538, -0.4861257982)
         ->( -1.4182241388, -1.2377555130, -0.4861261671)
 Atom   7: ( -0.7168795405, -0.1123764788, -0.1209957576)
         ->( -0.7168794846, -0.1123763635, -0.1209957407)
 Atom  16: ( -0.9362409258, -2.1330222212, -0.8570928766)
         ->( -0.9362407136, -2.1330219097, -0.8570935388)
 Atom  14: (  3.5365089128,  1.8724914695, -0.6117011435)
         ->(  3.5365091703,  1.8724911677, -0.6117014974)
 Atom  15: ( -4.1915502673,  0.5202433603,  0.2739789232)
         ->( -4.1915503449,  0.5202429584,  0.2739789804)
 ----------------------------------------------------------------
             Standard Nuclear Orientation (Angstroms)
    I     Atom           X                Y                Z
 ----------------------------------------------------------------
    1      S       1.8210408090    -1.1449734415     0.4016939237
    2      C       3.1978682963    -0.1385084923     0.0963010614
    3      C       2.8279617827     1.0940715096    -0.3612272533
    4      C       1.4182241388     1.2377555130    -0.4861261671
    5      C       0.7168794846     0.1123763635    -0.1209957407
    6      H       0.9362407136     2.1330219097    -0.8570935388
    7      C      -0.7168794846    -0.1123763635    -0.1209957407
    8      S      -1.8210408090     1.1449734415     0.4016939237
    9      C      -1.4182241388    -1.2377555130    -0.4861261671
   10      C      -3.1978682963     0.1385084923     0.0963010614
   11      C      -2.8279617827    -1.0940715096    -0.3612272533
   12      H      -3.5365091703    -1.8724911677    -0.6117014974
   13      H       4.1915503449    -0.5202429584     0.2739789804
   14      H       3.5365091703     1.8724911677    -0.6117014974
   15      H      -4.1915503449     0.5202429584     0.2739789804
   16      H      -0.9362407136    -2.1330219097    -0.8570935388
 ----------------------------------------------------------------
 Molecular Point Group                 C2    NOp =  2
 Largest Abelian Subgroup              C2    NOp =  2
 Nuclear Repulsion Energy =   629.8090541055 hartrees
 There are       43 alpha and       43 beta electrons
 Requested basis set is 6-31++G(d,p)
 There are 76 shells and 234 basis functions

 Total QAlloc Memory Limit   1500 MB
 Mega-Array Size        98 MB
 MEM_STATIC part       100 MB
 A cutoff of  1.0D-11 yielded   2495 shell pairs
 There are     24643 function pairs
 
 -------------------------------------------------------
 OpenMP Integral Computing Module                       
 Release: version 1.0, May 2013, Q-Chem Inc. Pittsburgh 
 -------------------------------------------------------
 Integral Job Info:
 Integral job number is                      11
 Integral operator is                         1
 short-range coefficients                     0
 long-range coefficients              100000000
 Omega coefficients                           0
 if combine SR and LR in K                    0
 Integral screening is                        0
 Integral computing path is                   2
 max size of driver memory is            800000
 size of driver memory is                593474
 size of scratch memory is             15166112
 max col of scratch BK array               1296
 max len of scratch array in speh3          155
 max len of scratch index in speh4           18
 max int batch size is                      520
 min int batch size is                       52
 fixed nKL is                                52
 max L of basis functions is                  2
 order of int derivative is                   0
 number of shells is                         76
 number of basis is                         234
 number of cartesian basis is               234
 number of contracted shell pairs          2495
 number of primitive shell pairs           8070
 maxK2 (contraction) of shell pair           36
 max number of K2 of shell pair               1
 max number of CS2 of shell pair            262
 max number of PS2 of shell pair           1536
 mem total for path MDJ                   51992
 -------------------------------------------------------
 Smallest overlap matrix eigenvalue = 1.03E-06

 Q-Chem warning in module /project/projectdirs/jcesr/qchem/qc44/cnl_qc441/compile/cori/qc_src/stvman/mkSTV.C, line 257:

 Overlap eigenvalue is smaller than square root of threshold


 Scale SEOQF with 1.000000e-01/1.000000e-01/1.000000e-01

 Standard Electronic Orientation quadrupole field applied
 Nucleus-field energy     =     0.0000000201 hartrees
 Guess from superposition of atomic densities
 Warning:  Energy on first SCF cycle will be non-variational
 A restricted hybrid HF-DFT SCF calculation will be
 performed using Pulay DIIS extrapolation
 Exchange:     0.2000 Hartree-Fock + 0.0800 Slater + 0.7200 B88
 Correlation:  0.1900 VWN1RPA + 0.8100 LYP
 Using SG-1 standard quadrature grid
 SCF converges when DIIS error is below 1.0E-08
 ---------------------------------------
  Cycle       Energy         DIIS Error
 ---------------------------------------
    1   -1107.2300830840      4.44E-02
    2   -1085.4739865450      8.11E-01
    3   -1072.4497493399      7.49E-01
    4   -1064.2669644553      7.84E-01
    5   -1092.3004756380      5.50E-01
    6   -1089.1138505223      5.84E-01
    7     -92.6879069230      2.40E+00
    8   -1053.6116925318      6.04E-01
    9    -986.6625540128      1.55E+00
   10   -1086.0942694647      1.84E-01
   11   -1098.7550241880      1.02E-01
   12   -1103.2233064100      1.78E-01
   13   -1102.8505189529      1.79E-01
   14   -1051.4041752168      3.64E-01
   15   -1098.5807987103      1.15E-02
   16   -1098.5994707926      2.68E-02
   17   -1104.2191672008      8.11E-03
   18   -1098.9083194498      1.46E-02
   19   -1098.6893158624      1.64E-02
   20   -1098.9307146460      1.57E-02
   21   -1100.2224917645      1.74E-02
   22   -1102.3081907914      1.12E-02
   23   -1095.9049881150      3.79E-02
   24   -1091.3478094196      5.39E-02
   25   -1093.8418760701      2.89E-02
   26   -1092.7447379185      3.09E-02
   27   -1093.9661935781      2.76E-02
   28   -1104.6066521021      3.32E-02
   29   -1091.8257136209      3.95E-02
   30   -1090.9365561619      5.41E-02
   31   -1091.2400453774      6.17E-02
   32   -1091.3588735436      6.06E-02
   33   -1090.9085455490      5.29E-02
   34   -1093.7361201022      5.78E-02
   35   -1092.9072400167      4.83E-02
   36   -1093.1798894793      4.80E-02
   37   -1102.1538679913      9.76E-02
   38   -1102.9426926641      9.12E-02
   39   -1102.4015399772      7.93E-02
   40   -1102.9848730734      4.50E-02
   41   -1096.9976193904      8.81E-02
   42   -1096.7595187490      9.42E-02
   43   -1098.5858912010      5.55E-02
   44   -1104.7452033165      3.36E-03
   45   -1104.8358218497      6.41E-04
   46   -1104.8372254429      6.16E-04
   47   -1104.8400334819      1.82E-04
   48   -1104.8402254608      7.45E-05
   49   -1104.8402656338      2.75E-05
   50   -1104.8402710459      6.06E-06
   51   -1104.8402703269      1.02E-06
   52   -1104.8402702576      2.95E-07
   53   -1104.8402699465      2.46E-07
   54   -1104.8402700880      1.59E-07
   55   -1104.8402692576      8.34E-08
   56   -1104.8402695192      4.27E-08
   57   -1104.8402701027      1.04E-08
   58   -1104.8402702272      1.59E-08
   59   -1104.8402702365      3.07E-08
   60   -1104.8402704189      3.26E-08
   61   -1104.8402702825      3.67E-08
   62   -1104.8402703360      2.17E-08
   63   -1104.8402704739      1.91E-08
   64   -1104.8402704755      1.96E-08
   65   -1104.8402705083      2.17E-08
   66   -1104.8402705610      2.31E-08
   67   -1104.8402705390      2.11E-08
   68   -1104.8402706229      2.57E-08
   69   -1104.8402705165      5.62E-08
   70   -1104.8402708044      2.24E-08
   71   -1104.8402707188      3.63E-08
   72   -1104.8402709260      3.47E-08
   73   -1104.8402710536      5.39E-08
   74   -1104.8402709496      5.99E-08
   75   -1104.8402710354      9.42E-08
   76   -1104.8402710136      8.63E-08
   77   -1104.8402708048      4.13E-08
   78   -1104.8402708819      2.46E-08
   79   -1104.8402707142      2.50E-08
   80   -1104.8402710333      3.75E-08
   81   -1104.8402710512      3.73E-08
   82   -1104.8402709090      4.58E-08
   83   -1104.8402708832      5.27E-08
   84   -1104.8402707382      5.25E-08
   85   -1104.8402707850      4.96E-08
   86   -1104.8402709293      7.28E-08
   87   -1104.8402708596      3.19E-08
   88   -1104.8402710330      2.88E-08
   89   -1104.8402711330      7.62E-08
   90   -1104.8402709403      5.76E-08
   91   -1104.8402711401      1.24E-07
   92   -1104.8402709906      9.06E-08
   93   -1104.8402708390      3.53E-08
   94   -1104.8402705754      9.91E-08
   95   -1104.8402706350      6.21E-08
   96   -1104.8402705648      8.06E-08
   97   -1104.8402709156      2.22E-08
   98   -1104.8402709719      4.37E-08
   99   -1104.8402709750      4.82E-08
  100   -1104.8402710754      6.77E-08
  101   -1104.8402712392      1.29E-07
  102   -1104.8402711656      1.13E-07
  103   -1104.8402711990      1.07E-07
  104   -1104.8402711230      9.89E-08
  105   -1104.8402708955      4.67E-08
  106   -1104.8402708602      3.65E-08
  107   -1104.8402708893      6.92E-08
  108   -1104.8402708546      4.90E-08
  109   -1104.8402709529      5.98E-08
  110   -1104.8402709983      7.21E-08
  111   -1104.8402710211      8.11E-08
  112   -1104.8402709413      4.84E-08
  113   -1104.8402709814      5.85E-08
  114   -1104.8402709361      2.90E-08
  115   -1104.8402707946      9.76E-09 Convergence criterion met
 ---------------------------------------
 SCF time:  CPU 46.40 s  wall 39.11 s
 SCF   energy in the final basis set = -1104.8402707946
 Total energy in the final basis set = -1104.8402707946
 
 --------------------------------------------------------------
             Orbital Energies (a.u.) and Symmetries
 --------------------------------------------------------------
 
 Alpha MOs, Restricted
 -- Occupied --                  
-88.919 -88.919 -10.237 -10.237 -10.224 -10.224 -10.203 -10.203
  1 B     1 A     2 A     2 B     3 B     3 A     4 B     4 A                  
-10.202 -10.202  -7.979  -7.979  -5.943  -5.943  -5.939  -5.939
  5 B     5 A     6 B     6 A     7 A     7 B     8 B     8 A                  
 -5.936  -5.936  -0.901  -0.879  -0.772  -0.748  -0.738  -0.706
  9 B     9 A    10 A    10 B    11 A    11 B    12 A    12 B                  
 -0.604  -0.578  -0.555  -0.535  -0.526  -0.478  -0.419  -0.418
 13 A    13 B    14 A    14 B    15 A    15 B    16 B    16 A                  
 -0.409  -0.405  -0.399  -0.377  -0.375  -0.355  -0.346  -0.274
 17 A    17 B    18 A    19 A    18 B    19 B    20 A    21 A                  
 -0.261  -0.261  -0.219
 20 B    22 A    21 B                                                          
 -- Virtual --                   
 -0.052  -0.010  -0.006  -0.003   0.007   0.010   0.017   0.022
 23 A    22 B    24 A    23 B    25 A    24 B    25 B    26 A                  
  0.030   0.036   0.039   0.044   0.045   0.055   0.059   0.062
 27 A    28 A    26 B    27 B    29 A    30 A    28 B    29 B                  
  0.071   0.079   0.091   0.094   0.102   0.103   0.106   0.108
 30 B    31 A    31 B    32 A    33 A    32 B    34 A    35 A                  
  0.121   0.123   0.131   0.132   0.134   0.135   0.137   0.138
 33 B    34 B    36 A    37 A    35 B    36 B    38 A    37 B                  
  0.150   0.151   0.161   0.164   0.166   0.174   0.177   0.179
 39 A    38 B    40 A    41 A    39 B    40 B    41 B    42 A                  
  0.186   0.190   0.205   0.207   0.210   0.224   0.225   0.230
 43 A    42 B    43 B    44 A    44 B    45 B    45 A    46 A                  
  0.236   0.246   0.261   0.267   0.274   0.277   0.283   0.289
 46 B    47 A    47 B    48 A    48 B    49 A    49 B    50 A                  
  0.313   0.318   0.326   0.341   0.355   0.358   0.379   0.390
 50 B    51 A    51 B    52 A    52 B    53 A    53 B    54 A                  
  0.434   0.457   0.466   0.517   0.524   0.536   0.540   0.569
 54 B    55 B    55 A    56 A    56 B    57 A    57 B    58 B                  
  0.582   0.602   0.615   0.628   0.652   0.658   0.669   0.680
 58 A    59 A    59 B    60 A    60 B    61 B    61 A    62 A                  
  0.698   0.700   0.721   0.727   0.735   0.743   0.759   0.772
 62 B    63 A    63 B    64 A    64 B    65 B    65 A    66 A                  
  0.786   0.813   0.814   0.832   0.837   0.871   0.918   0.944
 66 B    67 A    67 B    68 B    68 A    69 A    69 B    70 A                  
  0.948   0.954   0.961   0.965   0.968   0.989   1.000   1.013
 70 B    71 B    71 A    72 A    72 B    73 A    73 B    74 B                  
  1.018   1.032   1.055   1.067   1.087   1.096   1.115   1.117
 75 B    74 A    75 A    76 A    77 A    76 B    78 A    77 B                  
  1.149   1.179   1.193   1.220   1.248   1.275   1.318   1.346
 78 B    79 A    80 A    79 B    81 A    80 B    81 B    82 A                  
  1.349   1.351   1.363   1.380   1.463   1.466   1.505   1.539
 82 B    83 A    83 B    84 A    84 B    85 A    85 B    86 B                  
  1.556   1.689   1.695   1.748   1.804   1.867   1.872   1.892
 86 A    87 A    87 B    88 A    89 A    88 B    90 A    89 B                  
  1.921   1.926   1.957   1.984   2.006   2.045   2.082   2.096
 90 B    91 A    92 A    91 B    93 A    92 B    94 A    93 B                  
  2.113   2.153   2.180   2.184   2.241   2.247   2.265   2.338
 94 B    95 A    96 A    95 B    96 B    97 A    97 B    98 A                  
  2.367   2.369   2.423   2.452   2.464   2.469   2.498   2.508
 98 B    99 A    99 B   100 A   100 B   101 A   101 B   102 A                  
  2.532   2.532   2.586   2.591   2.604   2.663   2.699   2.722
103 A   102 B   103 B   104 A   104 B   105 A   106 A   105 B                  
  2.749   2.858   2.867   2.917   2.937   3.155   3.205   3.274
106 B   107 A   107 B   108 A   108 B   109 B   109 A   110 B                  
  3.278   3.409   3.433   3.729   3.751   3.975   3.976   4.255
110 A   111 A   111 B   112 A   112 B   113 B   113 A   114 A                  
  4.307   4.319   4.333   4.419   4.539   4.660   4.718
115 A   114 B   115 B   116 A   116 B   117 A   117 B                          
 
 Beta MOs, Restricted
 -- Occupied --                  
-88.919 -88.919 -10.237 -10.237 -10.224 -10.224 -10.203 -10.203
  1 B     1 A     2 A     2 B     3 B     3 A     4 B     4 A                  
-10.202 -10.202  -7.979  -7.979  -5.943  -5.943  -5.939  -5.939
  5 B     5 A     6 B     6 A     7 A     7 B     8 B     8 A                  
 -5.936  -5.936  -0.901  -0.879  -0.772  -0.748  -0.738  -0.706
  9 B     9 A    10 A    10 B    11 A    11 B    12 A    12 B                  
 -0.604  -0.578  -0.555  -0.535  -0.526  -0.478  -0.419  -0.418
 13 A    13 B    14 A    14 B    15 A    15 B    16 B    16 A                  
 -0.409  -0.405  -0.399  -0.377  -0.375  -0.355  -0.346  -0.274
 17 A    17 B    18 A    19 A    18 B    19 B    20 A    21 A                  
 -0.261  -0.261  -0.219
 20 B    22 A    21 B                                                          
 -- Virtual --                   
 -0.052  -0.010  -0.006  -0.003   0.007   0.010   0.017   0.022
 23 A    22 B    24 A    23 B    25 A    24 B    25 B    26 A                  
  0.030   0.036   0.039   0.044   0.045   0.055   0.059   0.062
 27 A    28 A    26 B    27 B    29 A    30 A    28 B    29 B                  
  0.071   0.079   0.091   0.094   0.102   0.103   0.106   0.108
 30 B    31 A    31 B    32 A    33 A    32 B    34 A    35 A                  
  0.121   0.123   0.131   0.132   0.134   0.135   0.137   0.138
 33 B    34 B    36 A    37 A    35 B    36 B    38 A    37 B                  
  0.150   0.151   0.161   0.164   0.166   0.174   0.177   0.179
 39 A    38 B    40 A    41 A    39 B    40 B    41 B    42 A                  
  0.186   0.190   0.205   0.207   0.210   0.224   0.225   0.230
 43 A    42 B    43 B    44 A    44 B    45 B    45 A    46 A                  
  0.236   0.246   0.261   0.267   0.274   0.277   0.283   0.289
 46 B    47 A    47 B    48 A    48 B    49 A    49 B    50 A                  
  0.313   0.318   0.326   0.341   0.355   0.358   0.379   0.390
 50 B    51 A    51 B    52 A    52 B    53 A    53 B    54 A                  
  0.434   0.457   0.466   0.517   0.524   0.536   0.540   0.569
 54 B    55 B    55 A    56 A    56 B    57 A    57 B    58 B                  
  0.582   0.602   0.615   0.628   0.652   0.658   0.669   0.680
 58 A    59 A    59 B    60 A    60 B    61 B    61 A    62 A                  
  0.698   0.700   0.721   0.727   0.735   0.743   0.759   0.772
 62 B    63 A    63 B    64 A    64 B    65 B    65 A    66 A                  
  0.786   0.813   0.814   0.832   0.837   0.871   0.918   0.944
 66 B    67 A    67 B    68 B    68 A    69 A    69 B    70 A                  
  0.948   0.954   0.961   0.965   0.968   0.989   1.000   1.013
 70 B    71 B    71 A    72 A    72 B    73 A    73 B    74 B                  
  1.018   1.032   1.055   1.067   1.087   1.096   1.115   1.117
 75 B    74 A    75 A    76 A    77 A    76 B    78 A    77 B                  
  1.149   1.179   1.193   1.220   1.248   1.275   1.318   1.346
 78 B    79 A    80 A    79 B    81 A    80 B    81 B    82 A                  
  1.349   1.351   1.363   1.380   1.463   1.466   1.505   1.539
 82 B    83 A    83 B    84 A    84 B    85 A    85 B    86 B                  
  1.556   1.689   1.695   1.748   1.804   1.867   1.872   1.892
 86 A    87 A    87 B    88 A    89 A    88 B    90 A    89 B                  
  1.921   1.926   1.957   1.984   2.006   2.045   2.082   2.096
 90 B    91 A    92 A    91 B    93 A    92 B    94 A    93 B                  
  2.113   2.153   2.180   2.184   2.241   2.247   2.265   2.338
 94 B    95 A    96 A    95 B    96 B    97 A    97 B    98 A                  
  2.367   2.369   2.423   2.452   2.464   2.469   2.498   2.508
 98 B    99 A    99 B   100 A   100 B   101 A   101 B   102 A                  
  2.532   2.532   2.586   2.591   2.604   2.663   2.699   2.722
103 A   102 B   103 B   104 A   104 B   105 A   106 A   105 B                  
  2.749   2.858   2.867   2.917   2.937   3.155   3.205   3.274
106 B   107 A   107 B   108 A   108 B   109 B   109 A   110 B                  
  3.278   3.409   3.433   3.729   3.751   3.975   3.976   4.255
110 A   111 A   111 B   112 A   112 B   113 B   113 A   114 A                  
  4.307   4.319   4.333   4.419   4.539   4.660   4.718
115 A   114 B   115 B   116 A   116 B   117 A   117 B                          
 --------------------------------------------------------------
 
          Ground-State Mulliken Net Atomic Charges

     Atom                 Charge (a.u.)
  ----------------------------------------
      1 S                    -0.015853
      2 C                    -0.033254
      3 C                    -0.412947
      4 C                     0.285739
      5 C                    -0.259345
      6 H                     0.133565
      7 C                    -0.259345
      8 S                    -0.015853
      9 C                     0.285739
     10 C                    -0.033254
     11 C                    -0.412947
     12 H                     0.114579
     13 H                     0.187515
     14 H                     0.114579
     15 H                     0.187515
     16 H                     0.133565
  ----------------------------------------
  Sum of atomic charges =    -0.000000

 -----------------------------------------------------------------
                    Cartesian Multipole Moments
 -----------------------------------------------------------------
    Charge (ESU x 10^10)
                -0.0000
    Dipole Moment (Debye)
         X      -0.0000      Y       0.0000      Z      -0.4010
       Tot       0.4010
    Quadrupole Moments (Debye-Ang)
        XX     -61.1786     XY       1.5080     YY     -69.2881
        XZ       0.0000     YZ       0.0000     ZZ     -77.3994
    Octopole Moments (Debye-Ang^2)
       XXX      -0.0000    XXY      -0.0000    XYY      -0.0000
       YYY      -0.0000    XXZ       3.9493    XYZ      -8.6301
       YYZ      -5.3956    XZZ      -0.0000    YZZ      -0.0000
       ZZZ       3.0737
    Hexadecapole Moments (Debye-Ang^3)
      XXXX   -1882.3154   XXXY     -20.0620   XXYY    -418.5624
      XYYY      13.2402   YYYY    -520.9706   XXXZ       0.0000
      XXYZ       0.0000   XYYZ       0.0000   YYYZ       0.0000
      XXZZ    -422.8534   XYZZ      -4.1447   YYZZ    -116.3446
      XZZZ       0.0000   YZZZ       0.0000   ZZZZ    -166.3025
 -----------------------------------------------------------------
 Calculating analytic gradient of the SCF energy
 Gradient of SCF Energy
            1           2           3           4           5           6
    1   0.0003213  -0.0003511  -0.0007973   0.0003648  -0.0012177   0.0009237
    2   0.0015017   0.0034847  -0.0027486  -0.0025335   0.0018450  -0.0010678
    3  -0.0000529  -0.0011462   0.0007494   0.0001910  -0.0004396   0.0004300
            7           8           9          10          11          12
    1   0.0012177  -0.0003213  -0.0003648   0.0003511   0.0007973   0.0009673
    2  -0.0018450  -0.0015017   0.0025335  -0.0034847   0.0027486   0.0011019
    3  -0.0004396  -0.0000529   0.0001910  -0.0011462   0.0007494   0.0004156
           13          14          15          16
    1  -0.0016449  -0.0009673   0.0016449  -0.0009237
    2   0.0002858  -0.0011019  -0.0002858   0.0010678
    3  -0.0001474   0.0004156  -0.0001474   0.0004300
 Max gradient component =       3.485E-03
 RMS gradient           =       1.349E-03
 Gradient time:  CPU 1.90 s  wall 1.92 s
 Geometry Optimization Parameters
   NAtoms,    NIC,     NZ,  NCons,   NDum,   NFix, NCnnct, MaxDiis
       16     111       0       1       0       0       0       0


** CONSTRAINED OPTIMIZATION IN DELOCALIZED INTERNAL COORDINATES **
   Searching for a Minimum

   Optimization Cycle:   1

                       Coordinates (Angstroms)
     ATOM                X               Y               Z
      1  S         1.8210408090   -1.1449734415    0.4016939237
      2  C         3.1978682963   -0.1385084923    0.0963010614
      3  C         2.8279617827    1.0940715096   -0.3612272533
      4  C         1.4182241388    1.2377555130   -0.4861261671
      5  C         0.7168794846    0.1123763635   -0.1209957407
      6  H         0.9362407136    2.1330219097   -0.8570935388
      7  C        -0.7168794846   -0.1123763635   -0.1209957407
      8  S        -1.8210408090    1.1449734415    0.4016939237
      9  C        -1.4182241388   -1.2377555130   -0.4861261671
     10  C        -3.1978682963    0.1385084923    0.0963010614
     11  C        -2.8279617827   -1.0940715096   -0.3612272533
     12  H        -3.5365091703   -1.8724911677   -0.6117014974
     13  H         4.1915503449   -0.5202429584    0.2739789804
     14  H         3.5365091703    1.8724911677   -0.6117014974
     15  H        -4.1915503449    0.5202429584    0.2739789804
     16  H        -0.9362407136   -2.1330219097   -0.8570935388
   Point Group: c2    Number of degrees of freedom:    22


   Energy is  -1104.840270795

              Constraints and their Current Values
                                        Value     Constraint
   Dihedral:        4   5   7   9      140.000      140.000

 Attempting to Generate Delocalized Internal Coordinates

 21 Hessian modes will be used to form the next step
  Hessian Eigenvalues:
     0.045000    0.045000    0.045000    0.045002    0.045004    0.045013
     0.159937    0.159990    0.160000    0.221280    0.237833    0.249997
     0.296078    0.314672    0.357149    0.357543    0.360899    0.380793
     0.408411    0.470750    0.505998

 Minimum Search - Taking Simple RFO Step
 Searching for Lamda that Minimizes Along All modes
 Value Taken    Lamda =  -0.00028869
 Step Taken.  Stepsize is  0.034994

                             Maximum     Tolerance    Cnvgd?
         Gradient           0.005720      0.000300      NO
         Displacement       0.016989      0.001200      NO
         Energy change     *********      0.000001      NO


 New Cartesian Coordinates Obtained by Inverse Iteration

 Displacement from previous Coordinates is:  0.075845
 ----------------------------------------------------------------
             Standard Nuclear Orientation (Angstroms)
    I     Atom           X                Y                Z
 ----------------------------------------------------------------
    1      S       1.8260259846    -1.1486903274     0.3980806192
    2      C       3.2046284532    -0.1419804793     0.0908151383
    3      C       2.8336287975     1.0975296709    -0.3612574629
    4      C       1.4200173850     1.2429435016    -0.4802836819
    5      C       0.7191068837     0.1133177450    -0.1138556420
    6      H       0.9336542720     2.1400603273    -0.8472775375
    7      C      -0.7191068837    -0.1133177450    -0.1138556420
    8      S      -1.8260259846     1.1486903274     0.3980806192
    9      C      -1.4200173850    -1.2429435016    -0.4802836819
   10      C      -3.2046284532     0.1419804793     0.0908151383
   11      C      -2.8336287975    -1.0975296709    -0.3612574629
   12      H      -3.5433647280    -1.8775435041    -0.6131387069
   13      H       4.2015760740    -0.5250783249     0.2617470420
   14      H       3.5433647280     1.8775435041    -0.6131387069
   15      H      -4.2015760740     0.5250783249     0.2617470420
   16      H      -0.9336542720    -2.1400603273    -0.8472775375
 ----------------------------------------------------------------
 Molecular Point Group                 C2    NOp =  2
 Largest Abelian Subgroup              C2    NOp =  2
 Nuclear Repulsion Energy =   628.5223875266 hartrees
 There are       43 alpha and       43 beta electrons
 Applying Cartesian multipole field
    Component          Value
    ---------          -----
     (2,0,0)        1.00000E-11
     (0,2,0)        2.00000E-11
     (0,0,2)       -3.00000E-11
 Nucleus-field energy     =     0.0000000203 hartrees
 Requested basis set is 6-31++G(d,p)
 There are 76 shells and 234 basis functions
 A cutoff of  1.0D-11 yielded   2493 shell pairs
 There are     24631 function pairs
 Smallest overlap matrix eigenvalue = 1.06E-06

 Q-Chem warning in module /project/projectdirs/jcesr/qchem/qc44/cnl_qc441/compile/cori/qc_src/stvman/mkSTV.C, line 257:

 Overlap eigenvalue is smaller than square root of threshold

 Guess MOs from SCF MO coefficient file
 Reading MOs from coefficient file
 Reading MOs from coefficient file
 A restricted hybrid HF-DFT SCF calculation will be
 performed using Pulay DIIS extrapolation
 Exchange:     0.2000 Hartree-Fock + 0.0800 Slater + 0.7200 B88
 Correlation:  0.1900 VWN1RPA + 0.8100 LYP
 Using SG-1 standard quadrature grid
 SCF converges when DIIS error is below 1.0E-08
 Geometry optimization detected.  Setting ReadMinima to 0
 Setting SaveMinima to 0
 ---------------------------------------
  Cycle       Energy         DIIS Error
 ---------------------------------------
    1   -1104.8187474565      3.32E-04
    2   -1104.8403380430      9.32E-05
    3   -1104.8402033125      1.63E-04
    4   -1104.8404109814      2.95E-05
    5   -1104.8404169019      6.49E-06
    6   -1104.8404171823      2.81E-06
    7   -1104.8404172461      9.17E-07
    8   -1104.8404172490      2.50E-07
    9   -1104.8404172485      4.68E-08
   10   -1104.8404172495      2.23E-08
   11   -1104.8404172486      3.08E-09 Convergence criterion met
 ---------------------------------------
 SCF time:  CPU 5.84 s  wall 5.12 s
 SCF   energy in the final basis set = -1104.8404172486
 Total energy in the final basis set = -1104.8404172486
 
 --------------------------------------------------------------
             Orbital Energies (a.u.) and Symmetries
 --------------------------------------------------------------
 
 Alpha MOs, Restricted
 -- Occupied --                  
-88.920 -88.920 -10.238 -10.238 -10.225 -10.225 -10.204 -10.204
  1 B     1 A     2 A     2 B     3 B     3 A     4 B     4 A                  
-10.203 -10.203  -7.979  -7.979  -5.943  -5.943  -5.940  -5.940
  5 B     5 A     6 B     6 A     7 A     7 B     8 B     8 A                  
 -5.936  -5.936  -0.899  -0.878  -0.771  -0.747  -0.738  -0.705
  9 B     9 A    10 A    10 B    11 A    11 B    12 A    12 B                  
 -0.603  -0.578  -0.554  -0.534  -0.525  -0.478  -0.419  -0.418
 13 A    13 B    14 A    14 B    15 A    15 B    16 B    16 A                  
 -0.408  -0.405  -0.398  -0.377  -0.374  -0.356  -0.346  -0.273
 17 A    17 B    18 A    19 A    18 B    19 B    20 A    21 A                  
 -0.261  -0.261  -0.218
 20 B    22 A    21 B                                                          
 -- Virtual --                   
 -0.052  -0.010  -0.006  -0.003   0.007   0.009   0.017   0.022
 23 A    22 B    24 A    23 B    25 A    24 B    25 B    26 A                  
  0.030   0.035   0.038   0.044   0.045   0.055   0.058   0.062
 27 A    28 A    26 B    27 B    29 A    30 A    28 B    29 B                  
  0.071   0.079   0.091   0.094   0.102   0.102   0.106   0.108
 30 B    31 A    31 B    32 A    33 A    32 B    34 A    35 A                  
  0.121   0.122   0.130   0.132   0.134   0.135   0.137   0.137
 33 B    34 B    36 A    37 A    35 B    36 B    38 A    37 B                  
  0.149   0.151   0.160   0.163   0.166   0.174   0.177   0.179
 39 A    38 B    40 A    41 A    39 B    40 B    41 B    42 A                  
  0.186   0.190   0.205   0.207   0.209   0.224   0.224   0.230
 43 A    42 B    43 B    44 A    44 B    45 B    45 A    46 A                  
  0.236   0.246   0.260   0.267   0.272   0.276   0.281   0.288
 46 B    47 A    47 B    48 A    48 B    49 A    49 B    50 A                  
  0.312   0.317   0.325   0.340   0.354   0.357   0.378   0.388
 50 B    51 A    51 B    52 A    52 B    53 A    53 B    54 A                  
  0.433   0.455   0.466   0.516   0.523   0.536   0.539   0.567
 54 B    55 B    55 A    56 A    56 B    57 A    57 B    58 B                  
  0.581   0.601   0.614   0.627   0.651   0.657   0.668   0.679
 58 A    59 A    59 B    60 A    60 B    61 B    61 A    62 A                  
  0.696   0.699   0.720   0.727   0.733   0.743   0.759   0.771
 62 B    63 A    63 B    64 A    64 B    65 B    65 A    66 A                  
  0.785   0.813   0.813   0.832   0.836   0.869   0.917   0.943
 66 B    67 A    67 B    68 B    68 A    69 A    69 B    70 A                  
  0.948   0.955   0.961   0.963   0.967   0.988   1.000   1.013
 70 B    71 B    71 A    72 A    72 B    73 A    73 B    74 B                  
  1.017   1.030   1.054   1.066   1.086   1.095   1.114   1.115
 75 B    74 A    75 A    76 A    77 A    76 B    78 A    77 B                  
  1.148   1.178   1.192   1.219   1.247   1.272   1.317   1.345
 78 B    79 A    80 A    79 B    81 A    80 B    81 B    82 A                  
  1.349   1.351   1.362   1.379   1.462   1.465   1.501   1.536
 82 B    83 A    83 B    84 A    84 B    85 A    85 B    86 B                  
  1.555   1.687   1.694   1.746   1.800   1.865   1.869   1.888
 86 A    87 A    87 B    88 A    89 A    88 B    90 A    89 B                  
  1.918   1.921   1.951   1.981   2.005   2.040   2.078   2.093
 90 B    91 A    92 A    91 B    93 A    92 B    94 A    93 B                  
  2.111   2.151   2.176   2.182   2.236   2.244   2.260   2.332
 94 B    95 A    96 A    95 B    96 B    97 A    97 B    98 A                  
  2.365   2.367   2.421   2.446   2.459   2.466   2.494   2.505
 98 B    99 A    99 B   100 A   100 B   101 A   101 B   102 A                  
  2.528   2.529   2.581   2.585   2.599   2.658   2.693   2.716
103 A   102 B   103 B   104 A   104 B   105 A   106 A   105 B                  
  2.744   2.851   2.860   2.909   2.931   3.147   3.196   3.269
106 B   107 A   107 B   108 A   108 B   109 B   109 A   110 B                  
  3.272   3.402   3.426   3.720   3.742   3.974   3.974   4.252
110 A   111 A   111 B   112 A   112 B   113 B   113 A   114 A                  
  4.305   4.318   4.330   4.417   4.537   4.656   4.712
115 A   114 B   115 B   116 A   116 B   117 A   117 B                          
 
 Beta MOs, Restricted
 -- Occupied --                  
-88.920 -88.920 -10.238 -10.238 -10.225 -10.225 -10.204 -10.204
  1 B     1 A     2 A     2 B     3 B     3 A     4 B     4 A                  
-10.203 -10.203  -7.979  -7.979  -5.943  -5.943  -5.940  -5.940
  5 B     5 A     6 B     6 A     7 A     7 B     8 B     8 A                  
 -5.936  -5.936  -0.899  -0.878  -0.771  -0.747  -0.738  -0.705
  9 B     9 A    10 A    10 B    11 A    11 B    12 A    12 B                  
 -0.603  -0.578  -0.554  -0.534  -0.525  -0.478  -0.419  -0.418
 13 A    13 B    14 A    14 B    15 A    15 B    16 B    16 A                  
 -0.408  -0.405  -0.398  -0.377  -0.374  -0.356  -0.346  -0.273
 17 A    17 B    18 A    19 A    18 B    19 B    20 A    21 A                  
 -0.261  -0.261  -0.218
 20 B    22 A    21 B                                                          
 -- Virtual --                   
 -0.052  -0.010  -0.006  -0.003   0.007   0.009   0.017   0.022
 23 A    22 B    24 A    23 B    25 A    24 B    25 B    26 A                  
  0.030   0.035   0.038   0.044   0.045   0.055   0.058   0.062
 27 A    28 A    26 B    27 B    29 A    30 A    28 B    29 B                  
  0.071   0.079   0.091   0.094   0.102   0.102   0.106   0.108
 30 B    31 A    31 B    32 A    33 A    32 B    34 A    35 A                  
  0.121   0.122   0.130   0.132   0.134   0.135   0.137   0.137
 33 B    34 B    36 A    37 A    35 B    36 B    38 A    37 B                  
  0.149   0.151   0.160   0.163   0.166   0.174   0.177   0.179
 39 A    38 B    40 A    41 A    39 B    40 B    41 B    42 A                  
  0.186   0.190   0.205   0.207   0.209   0.224   0.224   0.230
 43 A    42 B    43 B    44 A    44 B    45 B    45 A    46 A                  
  0.236   0.246   0.260   0.267   0.272   0.276   0.281   0.288
 46 B    47 A    47 B    48 A    48 B    49 A    49 B    50 A                  
  0.312   0.317   0.325   0.340   0.354   0.357   0.378   0.388
 50 B    51 A    51 B    52 A    52 B    53 A    53 B    54 A                  
  0.433   0.455   0.466   0.516   0.523   0.536   0.539   0.567
 54 B    55 B    55 A    56 A    56 B    57 A    57 B    58 B                  
  0.581   0.601   0.614   0.627   0.651   0.657   0.668   0.679
 58 A    59 A    59 B    60 A    60 B    61 B    61 A    62 A                  
  0.696   0.699   0.720   0.727   0.733   0.743   0.759   0.771
 62 B    63 A    63 B    64 A    64 B    65 B    65 A    66 A                  
  0.785   0.813   0.813   0.832   0.836   0.869   0.917   0.943
 66 B    67 A    67 B    68 B    68 A    69 A    69 B    70 A                  
  0.948   0.955   0.961   0.963   0.967   0.988   1.000   1.013
 70 B    71 B    71 A    72 A    72 B    73 A    73 B    74 B                  
  1.017   1.030   1.054   1.066   1.086   1.095   1.114   1.115
 75 B    74 A    75 A    76 A    77 A    76 B    78 A    77 B                  
  1.148   1.178   1.192   1.219   1.247   1.272   1.317   1.345
 78 B    79 A    80 A    79 B    81 A    80 B    81 B    82 A                  
  1.349   1.351   1.362   1.379   1.462   1.465   1.501   1.536
 82 B    83 A    83 B    84 A    84 B    85 A    85 B    86 B                  
  1.555   1.687   1.694   1.746   1.800   1.865   1.869   1.888
 86 A    87 A    87 B    88 A    89 A    88 B    90 A    89 B                  
  1.918   1.921   1.951   1.981   2.005   2.040   2.078   2.093
 90 B    91 A    92 A    91 B    93 A    92 B    94 A    93 B                  
  2.111   2.151   2.176   2.182   2.236   2.244   2.260   2.332
 94 B    95 A    96 A    95 B    96 B    97 A    97 B    98 A                  
  2.365   2.367   2.421   2.446   2.459   2.466   2.494   2.505
 98 B    99 A    99 B   100 A   100 B   101 A   101 B   102 A                  
  2.528   2.529   2.581   2.585   2.599   2.658   2.693   2.716
103 A   102 B   103 B   104 A   104 B   105 A   106 A   105 B                  
  2.744   2.851   2.860   2.909   2.931   3.147   3.196   3.269
106 B   107 A   107 B   108 A   108 B   109 B   109 A   110 B                  
  3.272   3.402   3.426   3.720   3.742   3.974   3.974   4.252
110 A   111 A   111 B   112 A   112 B   113 B   113 A   114 A                  
  4.305   4.318   4.330   4.417   4.537   4.656   4.712
115 A   114 B   115 B   116 A   116 B   117 A   117 B                          
 --------------------------------------------------------------
 
          Ground-State Mulliken Net Atomic Charges

     Atom                 Charge (a.u.)
  ----------------------------------------
      1 S                    -0.017286
      2 C                    -0.034975
      3 C                    -0.410050
      4 C                     0.278894
      5 C                    -0.253636
      6 H                     0.133958
      7 C                    -0.253636
      8 S                    -0.017286
      9 C                     0.278894
     10 C                    -0.034975
     11 C                    -0.410050
     12 H                     0.115100
     13 H                     0.187995
     14 H                     0.115100
     15 H                     0.187995
     16 H                     0.133958
  ----------------------------------------
  Sum of atomic charges =     0.000000

 -----------------------------------------------------------------
                    Cartesian Multipole Moments
 -----------------------------------------------------------------
    Charge (ESU x 10^10)
                 0.0000
    Dipole Moment (Debye)
         X       0.0000      Y      -0.0000      Z      -0.4097
       Tot       0.4097
    Quadrupole Moments (Debye-Ang)
        XX     -61.1597     XY       1.4673     YY     -69.2559
        XZ       0.0000     YZ       0.0000     ZZ     -77.5227
    Octopole Moments (Debye-Ang^2)
       XXX       0.0000    XXY       0.0000    XYY       0.0000
       YYY       0.0000    XXZ       3.6397    XYZ      -8.6392
       YYZ      -5.4068    XZZ       0.0000    YZZ       0.0000
       ZZZ       3.2035
    Hexadecapole Moments (Debye-Ang^3)
      XXXX   -1889.5668   XXXY     -20.2771   XXYY    -420.2870
      XYYY      13.6242   YYYY    -523.7875   XXXZ       0.0000
      XXYZ      -0.0000   XYYZ       0.0000   YYYZ       0.0000
      XXZZ    -425.2649   XYZZ      -4.0178   YYZZ    -116.9225
      XZZZ       0.0000   YZZZ       0.0000   ZZZZ    -165.4170
 -----------------------------------------------------------------
 Calculating analytic gradient of the SCF energy
 Gradient of SCF Energy
            1           2           3           4           5           6
    1   0.0001399   0.0002224   0.0001078  -0.0000704  -0.0003592   0.0000361
    2  -0.0000896   0.0001078   0.0000415  -0.0002984   0.0003841   0.0001295
    3   0.0003671   0.0000898  -0.0000328  -0.0007844   0.0004312  -0.0000975
            7           8           9          10          11          12
    1   0.0003592  -0.0001399   0.0000704  -0.0002224  -0.0001078  -0.0000560
    2  -0.0003841   0.0000896   0.0002984  -0.0001078  -0.0000415  -0.0001166
    3   0.0004312   0.0003671  -0.0007844   0.0000898  -0.0000328  -0.0000200
           13          14          15          16
    1   0.0000331   0.0000560  -0.0000331  -0.0000361
    2  -0.0001758   0.0001166   0.0001758  -0.0001295
    3   0.0000466  -0.0000200   0.0000466  -0.0000975
 Max gradient component =       7.844E-04
 RMS gradient           =       2.497E-04
 Gradient time:  CPU 1.90 s  wall 1.90 s
 Geometry Optimization Parameters
   NAtoms,    NIC,     NZ,  NCons,   NDum,   NFix, NCnnct, MaxDiis
       16     111       0       1       0       0       0       0

 Cartesian Hessian Update
 Hessian Updated using BFGS Update


** CONSTRAINED OPTIMIZATION IN DELOCALIZED INTERNAL COORDINATES **
   Searching for a Minimum

   Optimization Cycle:   2

                       Coordinates (Angstroms)
     ATOM                X               Y               Z
      1  S         1.8260259846   -1.1486903274    0.3980806192
      2  C         3.2046284532   -0.1419804793    0.0908151383
      3  C         2.8336287975    1.0975296709   -0.3612574629
      4  C         1.4200173850    1.2429435016   -0.4802836819
      5  C         0.7191068837    0.1133177450   -0.1138556420
      6  H         0.9336542720    2.1400603273   -0.8472775375
      7  C        -0.7191068837   -0.1133177450   -0.1138556420
      8  S        -1.8260259846    1.1486903274    0.3980806192
      9  C        -1.4200173850   -1.2429435016   -0.4802836819
     10  C        -3.2046284532    0.1419804793    0.0908151383
     11  C        -2.8336287975   -1.0975296709   -0.3612574629
     12  H        -3.5433647280   -1.8775435041   -0.6131387069
     13  H         4.2015760740   -0.5250783249    0.2617470420
     14  H         3.5433647280    1.8775435041   -0.6131387069
     15  H        -4.2015760740    0.5250783249    0.2617470420
     16  H        -0.9336542720   -2.1400603273   -0.8472775375
   Point Group: c2    Number of degrees of freedom:    22


   Energy is  -1104.840417249

              Constraints and their Current Values
                                        Value     Constraint
   Dihedral:        4   5   7   9      140.000      140.000
 Hessian Updated using BFGS Update

 21 Hessian modes will be used to form the next step
  Hessian Eigenvalues:
     0.039212    0.045000    0.045001    0.045004    0.045013    0.045028
     0.157717    0.159971    0.160034    0.221294    0.236383    0.249829
     0.297499    0.315407    0.357322    0.359138    0.363900    0.384239
     0.426847    0.471214    0.542786

 Minimum Search - Taking Simple RFO Step
 Searching for Lamda that Minimizes Along All modes
 Value Taken    Lamda =  -0.00001872
 Step Taken.  Stepsize is  0.020226

                             Maximum     Tolerance    Cnvgd?
         Gradient           0.000825      0.000300      NO
         Displacement       0.013130      0.001200      NO
         Energy change     -0.000146      0.000001      NO


 New Cartesian Coordinates Obtained by Inverse Iteration

 Displacement from previous Coordinates is:  0.052177
 ----------------------------------------------------------------
             Standard Nuclear Orientation (Angstroms)
    I     Atom           X                Y                Z
 ----------------------------------------------------------------
    1      S       1.8266788460    -1.1508892101     0.3948024761
    2      C       3.2043599078    -0.1438040114     0.0850283733
    3      C       2.8324310873     1.0975854744    -0.3614113346
    4      C       1.4186120762     1.2440482788    -0.4744690228
    5      C       0.7190613067     0.1136841205    -0.1078584606
    6      H       0.9303820705     2.1417640320    -0.8373496976
    7      C      -0.7190613067    -0.1136841205    -0.1078584606
    8      S      -1.8266788460     1.1508892101     0.3948024761
    9      C      -1.4186120762    -1.2440482788    -0.4744690228
   10      C      -3.2043599078     0.1438040114     0.0850283733
   11      C      -2.8324310873    -1.0975854744    -0.3614113346
   12      H      -3.5418111345    -1.8776087231    -0.6140770659
   13      H       4.2022584864    -0.5269845796     0.2501645001
   14      H       3.5418111345     1.8776087231    -0.6140770659
   15      H      -4.2022584864     0.5269845796     0.2501645001
   16      H      -0.9303820705    -2.1417640320    -0.8373496976
 ----------------------------------------------------------------
 Molecular Point Group                 C2    NOp =  2
 Largest Abelian Subgroup              C2    NOp =  2
 Nuclear Repulsion Energy =   628.5857849797 hartrees
 There are       43 alpha and       43 beta electrons
 Applying Cartesian multipole field
    Component          Value
    ---------          -----
     (2,0,0)        1.00000E-11
     (0,2,0)        2.00000E-11
     (0,0,2)       -3.00000E-11
 Nucleus-field energy     =     0.0000000203 hartrees
 Requested basis set is 6-31++G(d,p)
 There are 76 shells and 234 basis functions
 A cutoff of  1.0D-11 yielded   2493 shell pairs
 There are     24631 function pairs
 Smallest overlap matrix eigenvalue = 1.05E-06

 Q-Chem warning in module /project/projectdirs/jcesr/qchem/qc44/cnl_qc441/compile/cori/qc_src/stvman/mkSTV.C, line 257:

 Overlap eigenvalue is smaller than square root of threshold

 Guess MOs from SCF MO coefficient file
 Reading MOs from coefficient file
 Reading MOs from coefficient file
 A restricted hybrid HF-DFT SCF calculation will be
 performed using Pulay DIIS extrapolation
 Exchange:     0.2000 Hartree-Fock + 0.0800 Slater + 0.7200 B88
 Correlation:  0.1900 VWN1RPA + 0.8100 LYP
 Using SG-1 standard quadrature grid
 SCF converges when DIIS error is below 1.0E-08
 Geometry optimization detected.  Setting ReadMinima to 0
 Setting SaveMinima to 0
 ---------------------------------------
  Cycle       Energy         DIIS Error
 ---------------------------------------
    1   -1104.8403648329      1.87E-04
    2   -1104.8404302097      1.55E-05
    3   -1104.8404262060      2.90E-05
    4   -1104.8404327595      4.39E-06
    5   -1104.8404328555      2.71E-06
    6   -1104.8404329064      8.59E-07
    7   -1104.8404329121      2.18E-07
    8   -1104.8404329150      4.56E-08
    9   -1104.8404329168      1.46E-08
   10   -1104.8404329179      3.26E-09 Convergence criterion met
 ---------------------------------------
 SCF time:  CPU 5.26 s  wall 4.60 s
 SCF   energy in the final basis set = -1104.8404329179
 Total energy in the final basis set = -1104.8404329179
 
 --------------------------------------------------------------
             Orbital Energies (a.u.) and Symmetries
 --------------------------------------------------------------
 
 Alpha MOs, Restricted
 -- Occupied --                  
-88.920 -88.920 -10.238 -10.238 -10.225 -10.225 -10.204 -10.204
  1 B     1 A     2 A     2 B     3 B     3 A     4 B     4 A                  
-10.203 -10.203  -7.979  -7.979  -5.943  -5.943  -5.940  -5.940
  5 B     5 A     6 B     6 A     7 A     7 B     8 B     8 A                  
 -5.936  -5.936  -0.900  -0.878  -0.771  -0.748  -0.738  -0.705
  9 B     9 A    10 A    10 B    11 A    11 B    12 A    12 B                  
 -0.603  -0.578  -0.554  -0.534  -0.525  -0.478  -0.419  -0.418
 13 A    13 B    14 A    14 B    15 A    15 B    16 B    16 A                  
 -0.408  -0.405  -0.398  -0.377  -0.374  -0.356  -0.346  -0.274
 17 A    17 B    18 A    19 A    18 B    19 B    20 A    21 A                  
 -0.262  -0.261  -0.218
 20 B    22 A    21 B                                                          
 -- Virtual --                   
 -0.052  -0.010  -0.006  -0.003   0.007   0.009   0.017   0.022
 23 A    22 B    24 A    23 B    25 A    24 B    25 B    26 A                  
  0.030   0.035   0.038   0.045   0.046   0.055   0.058   0.062
 27 A    28 A    26 B    27 B    29 A    30 A    28 B    29 B                  
  0.071   0.080   0.091   0.094   0.102   0.102   0.106   0.108
 30 B    31 A    31 B    32 A    33 A    32 B    34 A    35 A                  
  0.121   0.122   0.130   0.132   0.134   0.135   0.137   0.137
 33 B    34 B    36 A    37 A    35 B    36 B    38 A    37 B                  
  0.149   0.151   0.161   0.163   0.166   0.174   0.177   0.179
 39 A    38 B    40 A    41 A    39 B    40 B    41 B    42 A                  
  0.186   0.190   0.205   0.207   0.209   0.224   0.224   0.230
 43 A    42 B    43 B    44 A    44 B    45 B    45 A    46 A                  
  0.236   0.246   0.260   0.267   0.272   0.276   0.281   0.288
 46 B    47 A    47 B    48 A    48 B    49 A    49 B    50 A                  
  0.312   0.316   0.324   0.340   0.354   0.357   0.378   0.388
 50 B    51 A    51 B    52 A    52 B    53 A    53 B    54 A                  
  0.433   0.455   0.466   0.516   0.523   0.536   0.539   0.567
 54 B    55 B    55 A    56 A    56 B    57 A    57 B    58 B                  
  0.581   0.601   0.614   0.626   0.652   0.657   0.668   0.679
 58 A    59 A    59 B    60 A    60 B    61 B    61 A    62 A                  
  0.695   0.699   0.720   0.727   0.733   0.743   0.759   0.771
 62 B    63 A    63 B    64 A    64 B    65 B    65 A    66 A                  
  0.785   0.813   0.813   0.832   0.836   0.869   0.917   0.943
 66 B    67 A    67 B    68 B    68 A    69 A    69 B    70 A                  
  0.948   0.955   0.961   0.963   0.967   0.988   1.000   1.013
 70 B    71 B    71 A    72 A    72 B    73 A    73 B    74 B                  
  1.017   1.030   1.054   1.066   1.087   1.095   1.114   1.115
 75 B    74 A    75 A    76 A    77 A    76 B    78 A    77 B                  
  1.148   1.177   1.193   1.219   1.247   1.271   1.317   1.344
 78 B    79 A    80 A    79 B    81 A    80 B    81 B    82 A                  
  1.349   1.352   1.362   1.380   1.462   1.464   1.500   1.535
 82 B    83 A    83 B    84 A    84 B    85 A    85 B    86 B                  
  1.557   1.687   1.693   1.745   1.800   1.865   1.869   1.888
 86 A    87 A    87 B    88 A    89 A    88 B    90 A    89 B                  
  1.919   1.921   1.951   1.981   2.005   2.041   2.078   2.093
 90 B    91 A    92 A    91 B    93 A    92 B    94 A    93 B                  
  2.112   2.151   2.176   2.182   2.236   2.244   2.259   2.332
 94 B    95 A    96 A    95 B    96 B    97 A    97 B    98 A                  
  2.365   2.367   2.421   2.446   2.458   2.466   2.494   2.505
 98 B    99 A    99 B   100 A   100 B   101 A   101 B   102 A                  
  2.528   2.529   2.581   2.585   2.599   2.658   2.693   2.716
103 A   102 B   103 B   104 A   104 B   105 A   106 A   105 B                  
  2.744   2.851   2.860   2.909   2.931   3.147   3.196   3.269
106 B   107 A   107 B   108 A   108 B   109 B   109 A   110 B                  
  3.272   3.402   3.426   3.720   3.742   3.974   3.975   4.252
110 A   111 A   111 B   112 A   112 B   113 B   113 A   114 A                  
  4.305   4.318   4.330   4.417   4.537   4.656   4.712
115 A   114 B   115 B   116 A   116 B   117 A   117 B                          
 
 Beta MOs, Restricted
 -- Occupied --                  
-88.920 -88.920 -10.238 -10.238 -10.225 -10.225 -10.204 -10.204
  1 B     1 A     2 A     2 B     3 B     3 A     4 B     4 A                  
-10.203 -10.203  -7.979  -7.979  -5.943  -5.943  -5.940  -5.940
  5 B     5 A     6 B     6 A     7 A     7 B     8 B     8 A                  
 -5.936  -5.936  -0.900  -0.878  -0.771  -0.748  -0.738  -0.705
  9 B     9 A    10 A    10 B    11 A    11 B    12 A    12 B                  
 -0.603  -0.578  -0.554  -0.534  -0.525  -0.478  -0.419  -0.418
 13 A    13 B    14 A    14 B    15 A    15 B    16 B    16 A                  
 -0.408  -0.405  -0.398  -0.377  -0.374  -0.356  -0.346  -0.274
 17 A    17 B    18 A    19 A    18 B    19 B    20 A    21 A                  
 -0.262  -0.261  -0.218
 20 B    22 A    21 B                                                          
 -- Virtual --                   
 -0.052  -0.010  -0.006  -0.003   0.007   0.009   0.017   0.022
 23 A    22 B    24 A    23 B    25 A    24 B    25 B    26 A                  
  0.030   0.035   0.038   0.045   0.046   0.055   0.058   0.062
 27 A    28 A    26 B    27 B    29 A    30 A    28 B    29 B                  
  0.071   0.080   0.091   0.094   0.102   0.102   0.106   0.108
 30 B    31 A    31 B    32 A    33 A    32 B    34 A    35 A                  
  0.121   0.122   0.130   0.132   0.134   0.135   0.137   0.137
 33 B    34 B    36 A    37 A    35 B    36 B    38 A    37 B                  
  0.149   0.151   0.161   0.163   0.166   0.174   0.177   0.179
 39 A    38 B    40 A    41 A    39 B    40 B    41 B    42 A                  
  0.186   0.190   0.205   0.207   0.209   0.224   0.224   0.230
 43 A    42 B    43 B    44 A    44 B    45 B    45 A    46 A                  
  0.236   0.246   0.260   0.267   0.272   0.276   0.281   0.288
 46 B    47 A    47 B    48 A    48 B    49 A    49 B    50 A                  
  0.312   0.316   0.324   0.340   0.354   0.357   0.378   0.388
 50 B    51 A    51 B    52 A    52 B    53 A    53 B    54 A                  
  0.433   0.455   0.466   0.516   0.523   0.536   0.539   0.567
 54 B    55 B    55 A    56 A    56 B    57 A    57 B    58 B                  
  0.581   0.601   0.614   0.626   0.652   0.657   0.668   0.679
 58 A    59 A    59 B    60 A    60 B    61 B    61 A    62 A                  
  0.695   0.699   0.720   0.727   0.733   0.743   0.759   0.771
 62 B    63 A    63 B    64 A    64 B    65 B    65 A    66 A                  
  0.785   0.813   0.813   0.832   0.836   0.869   0.917   0.943
 66 B    67 A    67 B    68 B    68 A    69 A    69 B    70 A                  
  0.948   0.955   0.961   0.963   0.967   0.988   1.000   1.013
 70 B    71 B    71 A    72 A    72 B    73 A    73 B    74 B                  
  1.017   1.030   1.054   1.066   1.087   1.095   1.114   1.115
 75 B    74 A    75 A    76 A    77 A    76 B    78 A    77 B                  
  1.148   1.177   1.193   1.219   1.247   1.271   1.317   1.344
 78 B    79 A    80 A    79 B    81 A    80 B    81 B    82 A                  
  1.349   1.352   1.362   1.380   1.462   1.464   1.500   1.535
 82 B    83 A    83 B    84 A    84 B    85 A    85 B    86 B                  
  1.557   1.687   1.693   1.745   1.800   1.865   1.869   1.888
 86 A    87 A    87 B    88 A    89 A    88 B    90 A    89 B                  
  1.919   1.921   1.951   1.981   2.005   2.041   2.078   2.093
 90 B    91 A    92 A    91 B    93 A    92 B    94 A    93 B                  
  2.112   2.151   2.176   2.182   2.236   2.244   2.259   2.332
 94 B    95 A    96 A    95 B    96 B    97 A    97 B    98 A                  
  2.365   2.367   2.421   2.446   2.458   2.466   2.494   2.505
 98 B    99 A    99 B   100 A   100 B   101 A   101 B   102 A                  
  2.528   2.529   2.581   2.585   2.599   2.658   2.693   2.716
103 A   102 B   103 B   104 A   104 B   105 A   106 A   105 B                  
  2.744   2.851   2.860   2.909   2.931   3.147   3.196   3.269
106 B   107 A   107 B   108 A   108 B   109 B   109 A   110 B                  
  3.272   3.402   3.426   3.720   3.742   3.974   3.975   4.252
110 A   111 A   111 B   112 A   112 B   113 B   113 A   114 A                  
  4.305   4.318   4.330   4.417   4.537   4.656   4.712
115 A   114 B   115 B   116 A   116 B   117 A   117 B                          
 --------------------------------------------------------------
 
          Ground-State Mulliken Net Atomic Charges

     Atom                 Charge (a.u.)
  ----------------------------------------
      1 S                    -0.018091
      2 C                    -0.035324
      3 C                    -0.409805
      4 C                     0.278359
      5 C                    -0.251719
      6 H                     0.133731
      7 C                    -0.251719
      8 S                    -0.018091
      9 C                     0.278359
     10 C                    -0.035324
     11 C                    -0.409805
     12 H                     0.115037
     13 H                     0.187811
     14 H                     0.115037
     15 H                     0.187811
     16 H                     0.133731
  ----------------------------------------
  Sum of atomic charges =    -0.000000

 -----------------------------------------------------------------
                    Cartesian Multipole Moments
 -----------------------------------------------------------------
    Charge (ESU x 10^10)
                -0.0000
    Dipole Moment (Debye)
         X      -0.0000      Y      -0.0000      Z      -0.4174
       Tot       0.4174
    Quadrupole Moments (Debye-Ang)
        XX     -61.1693     XY       1.4473     YY     -69.2344
        XZ       0.0000     YZ       0.0000     ZZ     -77.5478
    Octopole Moments (Debye-Ang^2)
       XXX      -0.0000    XXY      -0.0000    XYY      -0.0000
       YYY      -0.0000    XXZ       3.3513    XYZ      -8.5638
       YYZ      -5.3557    XZZ      -0.0000    YZZ      -0.0000
       ZZZ       3.2902
    Hexadecapole Moments (Debye-Ang^3)
      XXXX   -1888.9748   XXXY     -19.9795   XXYY    -420.2714
      XYYY      14.1833   YYYY    -524.6546   XXXZ       0.0000
      XXYZ       0.0000   XYYZ       0.0000   YYYZ       0.0000
      XXZZ    -425.2547   XYZZ      -3.7250   YYZZ    -117.0651
      XZZZ       0.0000   YZZZ       0.0000   ZZZZ    -164.2885
 -----------------------------------------------------------------
 Calculating analytic gradient of the SCF energy
 Gradient of SCF Energy
            1           2           3           4           5           6
    1   0.0000217   0.0000105   0.0000650  -0.0000185  -0.0000370  -0.0000236
    2  -0.0001470  -0.0000661   0.0001656  -0.0002684   0.0005014   0.0000772
    3   0.0002954   0.0001317  -0.0000220  -0.0009143   0.0006246  -0.0000791
            7           8           9          10          11          12
    1   0.0000370  -0.0000217   0.0000185  -0.0000105  -0.0000650  -0.0000396
    2  -0.0005014   0.0001470   0.0002684   0.0000661  -0.0001656  -0.0000909
    3   0.0006246   0.0002954  -0.0009143   0.0001317  -0.0000220  -0.0000316
           13          14          15          16
    1   0.0000766   0.0000396  -0.0000766   0.0000236
    2  -0.0000907   0.0000909   0.0000907  -0.0000772
    3  -0.0000047  -0.0000316  -0.0000047  -0.0000791
 Max gradient component =       9.143E-04
 RMS gradient           =       2.702E-04
 Gradient time:  CPU 1.90 s  wall 1.91 s
 Geometry Optimization Parameters
   NAtoms,    NIC,     NZ,  NCons,   NDum,   NFix, NCnnct, MaxDiis
       16     111       0       1       0       0       0       0

 Cartesian Hessian Update
 Hessian Updated using BFGS Update


** CONSTRAINED OPTIMIZATION IN DELOCALIZED INTERNAL COORDINATES **
   Searching for a Minimum

   Optimization Cycle:   3

                       Coordinates (Angstroms)
     ATOM                X               Y               Z
      1  S         1.8266788460   -1.1508892101    0.3948024761
      2  C         3.2043599078   -0.1438040114    0.0850283733
      3  C         2.8324310873    1.0975854744   -0.3614113346
      4  C         1.4186120762    1.2440482788   -0.4744690228
      5  C         0.7190613067    0.1136841205   -0.1078584606
      6  H         0.9303820705    2.1417640320   -0.8373496976
      7  C        -0.7190613067   -0.1136841205   -0.1078584606
      8  S        -1.8266788460    1.1508892101    0.3948024761
      9  C        -1.4186120762   -1.2440482788   -0.4744690228
     10  C        -3.2043599078    0.1438040114    0.0850283733
     11  C        -2.8324310873   -1.0975854744   -0.3614113346
     12  H        -3.5418111345   -1.8776087231   -0.6140770659
     13  H         4.2022584864   -0.5269845796    0.2501645001
     14  H         3.5418111345    1.8776087231   -0.6140770659
     15  H        -4.2022584864    0.5269845796    0.2501645001
     16  H        -0.9303820705   -2.1417640320   -0.8373496976
   Point Group: c2    Number of degrees of freedom:    22


   Energy is  -1104.840432918

              Constraints and their Current Values
                                        Value     Constraint
   Dihedral:        4   5   7   9      140.000      140.000
 Hessian Updated using BFGS Update

 21 Hessian modes will be used to form the next step
  Hessian Eigenvalues:
     0.011367    0.045001    0.045001    0.045005    0.045014    0.045446
     0.159286    0.159966    0.162096    0.221754    0.249591    0.264899
     0.298450    0.315464    0.357304    0.358757    0.362605    0.383413
     0.424665    0.478584    0.525441

 Minimum Search - Taking Simple RFO Step
 Searching for Lamda that Minimizes Along All modes
 Value Taken    Lamda =  -0.00003520
 Step Taken.  Stepsize is  0.054705

                             Maximum     Tolerance    Cnvgd?
         Gradient           0.000448      0.000300      NO
         Displacement       0.035370      0.001200      NO
         Energy change     -0.000016      0.000001      NO


 New Cartesian Coordinates Obtained by Inverse Iteration

 Displacement from previous Coordinates is:  0.139226
 ----------------------------------------------------------------
             Standard Nuclear Orientation (Angstroms)
    I     Atom           X                Y                Z
 ----------------------------------------------------------------
    1      S       1.8298255859    -1.1554140016     0.3853412418
    2      C       3.2054563632    -0.1479642149     0.0690268518
    3      C       2.8302628505     1.0975857996    -0.3622433168
    4      C       1.4157012829     1.2468315357    -0.4586353324
    5      C       0.7188159882     0.1149031133    -0.0918488197
    6      H       0.9238430209     2.1468877959    -0.8100357794
    7      C      -0.7188159882    -0.1149031133    -0.0918488197
    8      S      -1.8298255859     1.1554140016     0.3853412418
    9      C      -1.4157012829    -1.2468315357    -0.4586353324
   10      C      -3.2054563632     0.1479642149     0.0690268518
   11      C      -2.8302628505    -1.0975857996    -0.3622433168
   12      H      -3.5383895297    -1.8779723961    -0.6165615464
   13      H       4.2051567100    -0.5319933037     0.2197864693
   14      H       3.5383895297     1.8779723961    -0.6165615464
   15      H      -4.2051567100     0.5319933037     0.2197864693
   16      H      -0.9238430209    -2.1468877959    -0.8100357794
 ----------------------------------------------------------------
 Molecular Point Group                 C2    NOp =  2
 Largest Abelian Subgroup              C2    NOp =  2
 Nuclear Repulsion Energy =   628.6910586503 hartrees
 There are       43 alpha and       43 beta electrons
 Applying Cartesian multipole field
    Component          Value
    ---------          -----
     (2,0,0)        1.00000E-11
     (0,2,0)        2.00000E-11
     (0,0,2)       -3.00000E-11
 Nucleus-field energy     =     0.0000000204 hartrees
 Requested basis set is 6-31++G(d,p)
 There are 76 shells and 234 basis functions
 A cutoff of  1.0D-11 yielded   2495 shell pairs
 There are     24643 function pairs
 Smallest overlap matrix eigenvalue = 1.03E-06

 Q-Chem warning in module /project/projectdirs/jcesr/qchem/qc44/cnl_qc441/compile/cori/qc_src/stvman/mkSTV.C, line 257:

 Overlap eigenvalue is smaller than square root of threshold

 Guess MOs from SCF MO coefficient file
 Reading MOs from coefficient file
 Reading MOs from coefficient file
 A restricted hybrid HF-DFT SCF calculation will be
 performed using Pulay DIIS extrapolation
 Exchange:     0.2000 Hartree-Fock + 0.0800 Slater + 0.7200 B88
 Correlation:  0.1900 VWN1RPA + 0.8100 LYP
 Using SG-1 standard quadrature grid
 SCF converges when DIIS error is below 1.0E-08
 Geometry optimization detected.  Setting ReadMinima to 0
 Setting SaveMinima to 0
 ---------------------------------------
  Cycle       Energy         DIIS Error
 ---------------------------------------
    1   -1104.8399389768      5.10E-04
    2   -1104.8404309375      4.26E-05
    3   -1104.8403966849      8.28E-05
    4   -1104.8404500663      1.07E-05
    5   -1104.8404504828      7.86E-06
    6   -1104.8404509210      1.78E-06
    7   -1104.8404509423      5.98E-07
    8   -1104.8404509450      8.50E-08
    9   -1104.8404509462      3.13E-08
   10   -1104.8404509446      8.16E-09 Convergence criterion met
 ---------------------------------------
 SCF time:  CPU 5.34 s  wall 4.69 s
 SCF   energy in the final basis set = -1104.8404509446
 Total energy in the final basis set = -1104.8404509446
 
 --------------------------------------------------------------
             Orbital Energies (a.u.) and Symmetries
 --------------------------------------------------------------
 
 Alpha MOs, Restricted
 -- Occupied --                  
-88.920 -88.920 -10.238 -10.238 -10.225 -10.225 -10.204 -10.204
  1 B     1 A     2 A     2 B     3 B     3 A     4 A     4 B                  
-10.203 -10.203  -7.979  -7.979  -5.943  -5.943  -5.940  -5.940
  5 B     5 A     6 B     6 A     7 A     7 B     8 B     8 A                  
 -5.936  -5.936  -0.900  -0.878  -0.771  -0.748  -0.738  -0.705
  9 B     9 A    10 A    10 B    11 A    11 B    12 A    12 B                  
 -0.603  -0.578  -0.554  -0.534  -0.525  -0.478  -0.419  -0.418
 13 A    13 B    14 A    14 B    15 A    15 B    16 B    16 A                  
 -0.408  -0.405  -0.399  -0.377  -0.374  -0.356  -0.346  -0.274
 17 A    17 B    18 A    19 A    18 B    19 B    20 A    21 A                  
 -0.262  -0.261  -0.218
 20 B    22 A    21 B                                                          
 -- Virtual --                   
 -0.053  -0.009  -0.006  -0.003   0.007   0.010   0.017   0.022
 23 A    22 B    24 A    23 B    25 A    24 B    25 B    26 A                  
  0.030   0.035   0.038   0.045   0.046   0.054   0.058   0.061
 27 A    28 A    26 B    27 B    29 A    30 A    28 B    29 B                  
  0.071   0.080   0.091   0.094   0.101   0.102   0.106   0.109
 30 B    31 A    31 B    32 A    32 B    33 A    34 A    35 A                  
  0.120   0.123   0.130   0.132   0.134   0.135   0.137   0.137
 33 B    34 B    36 A    37 A    35 B    36 B    38 A    37 B                  
  0.149   0.152   0.161   0.163   0.165   0.173   0.177   0.178
 39 A    38 B    40 A    41 A    39 B    40 B    41 B    42 A                  
  0.186   0.191   0.206   0.207   0.209   0.224   0.224   0.229
 43 A    42 B    43 B    44 A    44 B    45 A    45 B    46 A                  
  0.236   0.248   0.259   0.268   0.270   0.276   0.282   0.287
 46 B    47 A    47 B    48 A    48 B    49 A    49 B    50 A                  
  0.313   0.316   0.324   0.341   0.355   0.357   0.377   0.388
 50 B    51 A    51 B    52 A    52 B    53 A    53 B    54 A                  
  0.433   0.455   0.466   0.517   0.522   0.538   0.540   0.567
 54 B    55 B    55 A    56 A    56 B    57 A    57 B    58 B                  
  0.581   0.602   0.614   0.625   0.652   0.656   0.668   0.678
 58 A    59 A    59 B    60 A    60 B    61 B    61 A    62 A                  
  0.692   0.699   0.720   0.727   0.732   0.743   0.758   0.773
 62 B    63 A    63 B    64 A    64 B    65 B    65 A    66 A                  
  0.785   0.813   0.815   0.832   0.837   0.869   0.917   0.942
 66 B    67 A    67 B    68 B    68 A    69 A    69 B    70 A                  
  0.948   0.956   0.961   0.962   0.967   0.989   1.000   1.014
 70 B    71 B    71 A    72 A    72 B    73 A    73 B    74 B                  
  1.019   1.030   1.052   1.065   1.088   1.096   1.114   1.114
 75 B    74 A    75 A    76 A    77 A    76 B    78 A    77 B                  
  1.148   1.177   1.195   1.218   1.247   1.270   1.317   1.344
 78 B    79 A    80 A    79 B    81 A    80 B    81 B    82 A                  
  1.349   1.353   1.362   1.382   1.463   1.464   1.498   1.533
 82 B    83 A    83 B    84 A    85 A    84 B    85 B    86 B                  
  1.560   1.686   1.693   1.744   1.798   1.867   1.868   1.888
 86 A    87 A    87 B    88 A    89 A    88 B    90 A    89 B                  
  1.921   1.922   1.949   1.980   2.005   2.041   2.078   2.094
 90 B    91 A    92 A    91 B    93 A    92 B    94 A    93 B                  
  2.114   2.152   2.175   2.184   2.236   2.243   2.257   2.333
 94 B    95 A    96 A    95 B    96 B    97 A    97 B    98 A                  
  2.366   2.368   2.421   2.447   2.457   2.466   2.494   2.505
 98 B    99 A    99 B   100 A   100 B   101 A   101 B   102 A                  
  2.528   2.530   2.582   2.586   2.600   2.658   2.693   2.717
103 A   102 B   103 B   104 A   104 B   105 A   106 A   105 B                  
  2.744   2.851   2.859   2.910   2.931   3.147   3.197   3.269
106 B   107 A   107 B   108 A   108 B   109 B   109 A   110 B                  
  3.272   3.402   3.426   3.720   3.742   3.974   3.975   4.251
110 A   111 A   111 B   112 A   112 B   113 B   113 A   114 A                  
  4.305   4.317   4.329   4.416   4.537   4.657   4.712
115 A   114 B   115 B   116 A   116 B   117 A   117 B                          
 
 Beta MOs, Restricted
 -- Occupied --                  
-88.920 -88.920 -10.238 -10.238 -10.225 -10.225 -10.204 -10.204
  1 B     1 A     2 A     2 B     3 B     3 A     4 A     4 B                  
-10.203 -10.203  -7.979  -7.979  -5.943  -5.943  -5.940  -5.940
  5 B     5 A     6 B     6 A     7 A     7 B     8 B     8 A                  
 -5.936  -5.936  -0.900  -0.878  -0.771  -0.748  -0.738  -0.705
  9 B     9 A    10 A    10 B    11 A    11 B    12 A    12 B                  
 -0.603  -0.578  -0.554  -0.534  -0.525  -0.478  -0.419  -0.418
 13 A    13 B    14 A    14 B    15 A    15 B    16 B    16 A                  
 -0.408  -0.405  -0.399  -0.377  -0.374  -0.356  -0.346  -0.274
 17 A    17 B    18 A    19 A    18 B    19 B    20 A    21 A                  
 -0.262  -0.261  -0.218
 20 B    22 A    21 B                                                          
 -- Virtual --                   
 -0.053  -0.009  -0.006  -0.003   0.007   0.010   0.017   0.022
 23 A    22 B    24 A    23 B    25 A    24 B    25 B    26 A                  
  0.030   0.035   0.038   0.045   0.046   0.054   0.058   0.061
 27 A    28 A    26 B    27 B    29 A    30 A    28 B    29 B                  
  0.071   0.080   0.091   0.094   0.101   0.102   0.106   0.109
 30 B    31 A    31 B    32 A    32 B    33 A    34 A    35 A                  
  0.120   0.123   0.130   0.132   0.134   0.135   0.137   0.137
 33 B    34 B    36 A    37 A    35 B    36 B    38 A    37 B                  
  0.149   0.152   0.161   0.163   0.165   0.173   0.177   0.178
 39 A    38 B    40 A    41 A    39 B    40 B    41 B    42 A                  
  0.186   0.191   0.206   0.207   0.209   0.224   0.224   0.229
 43 A    42 B    43 B    44 A    44 B    45 A    45 B    46 A                  
  0.236   0.248   0.259   0.268   0.270   0.276   0.282   0.287
 46 B    47 A    47 B    48 A    48 B    49 A    49 B    50 A                  
  0.313   0.316   0.324   0.341   0.355   0.357   0.377   0.388
 50 B    51 A    51 B    52 A    52 B    53 A    53 B    54 A                  
  0.433   0.455   0.466   0.517   0.522   0.538   0.540   0.567
 54 B    55 B    55 A    56 A    56 B    57 A    57 B    58 B                  
  0.581   0.602   0.614   0.625   0.652   0.656   0.668   0.678
 58 A    59 A    59 B    60 A    60 B    61 B    61 A    62 A                  
  0.692   0.699   0.720   0.727   0.732   0.743   0.758   0.773
 62 B    63 A    63 B    64 A    64 B    65 B    65 A    66 A                  
  0.785   0.813   0.815   0.832   0.837   0.869   0.917   0.942
 66 B    67 A    67 B    68 B    68 A    69 A    69 B    70 A                  
  0.948   0.956   0.961   0.962   0.967   0.989   1.000   1.014
 70 B    71 B    71 A    72 A    72 B    73 A    73 B    74 B                  
  1.019   1.030   1.052   1.065   1.088   1.096   1.114   1.114
 75 B    74 A    75 A    76 A    77 A    76 B    78 A    77 B                  
  1.148   1.177   1.195   1.218   1.247   1.270   1.317   1.344
 78 B    79 A    80 A    79 B    81 A    80 B    81 B    82 A                  
  1.349   1.353   1.362   1.382   1.463   1.464   1.498   1.533
 82 B    83 A    83 B    84 A    85 A    84 B    85 B    86 B                  
  1.560   1.686   1.693   1.744   1.798   1.867   1.868   1.888
 86 A    87 A    87 B    88 A    89 A    88 B    90 A    89 B                  
  1.921   1.922   1.949   1.980   2.005   2.041   2.078   2.094
 90 B    91 A    92 A    91 B    93 A    92 B    94 A    93 B                  
  2.114   2.152   2.175   2.184   2.236   2.243   2.257   2.333
 94 B    95 A    96 A    95 B    96 B    97 A    97 B    98 A                  
  2.366   2.368   2.421   2.447   2.457   2.466   2.494   2.505
 98 B    99 A    99 B   100 A   100 B   101 A   101 B   102 A                  
  2.528   2.530   2.582   2.586   2.600   2.658   2.693   2.717
103 A   102 B   103 B   104 A   104 B   105 A   106 A   105 B                  
  2.744   2.851   2.859   2.910   2.931   3.147   3.197   3.269
106 B   107 A   107 B   108 A   108 B   109 B   109 A   110 B                  
  3.272   3.402   3.426   3.720   3.742   3.974   3.975   4.251
110 A   111 A   111 B   112 A   112 B   113 B   113 A   114 A                  
  4.305   4.317   4.329   4.416   4.537   4.657   4.712
115 A   114 B   115 B   116 A   116 B   117 A   117 B                          
 --------------------------------------------------------------
 
          Ground-State Mulliken Net Atomic Charges

     Atom                 Charge (a.u.)
  ----------------------------------------
      1 S                    -0.020883
      2 C                    -0.034544
      3 C                    -0.409047
      4 C                     0.275532
      5 C                    -0.246591
      6 H                     0.133011
      7 C                    -0.246591
      8 S                    -0.020883
      9 C                     0.275532
[...]
  3.272   3.403   3.426   3.721   3.742   3.974   3.975   4.251
110 A   111 A   111 B   112 A   112 B   113 B   113 A   114 A                  
  4.305   4.317   4.329   4.417   4.537   4.657   4.712
115 A   114 B   115 B   116 A   116 B   117 A   117 B                          
 --------------------------------------------------------------
 
          Ground-State Mulliken Net Atomic Charges

     Atom                 Charge (a.u.)
  ----------------------------------------
      1 S                    -0.021086
      2 C                    -0.034739
      3 C                    -0.408543
      4 C                     0.274358
      5 C                    -0.245466
      6 H                     0.132886
      7 C                    -0.245465
      8 S                    -0.021086
      9 C                     0.274358
     10 C                    -0.034739
     11 C                    -0.408543
     12 H                     0.114878
     13 H                     0.187712
     14 H                     0.114878
     15 H                     0.187712
     16 H                     0.132886
  ----------------------------------------
  Sum of atomic charges =    -0.000000

 -----------------------------------------------------------------
                    Cartesian Multipole Moments
 -----------------------------------------------------------------
    Charge (ESU x 10^10)
                -0.0000
    Dipole Moment (Debye)
         X       0.0000      Y       0.0000      Z      -0.4338
       Tot       0.4338
    Quadrupole Moments (Debye-Ang)
        XX     -61.1559     XY       1.4071     YY     -69.1799
        XZ      -0.0000     YZ      -0.0000     ZZ     -77.6266
    Octopole Moments (Debye-Ang^2)
       XXX       0.0000    XXY      -0.0000    XYY       0.0000
       YYY       0.0000    XXZ       2.6825    XYZ      -8.3312
       YYZ      -5.1526    XZZ      -0.0000    YZZ       0.0000
       ZZZ       3.7186
    Hexadecapole Moments (Debye-Ang^3)
      XXXX   -1888.8216   XXXY     -19.5096   XXYY    -420.5152
      XYYY      15.8072   YYYY    -526.8406   XXXZ      -0.0000
      XXYZ      -0.0000   XYYZ      -0.0000   YYYZ      -0.0000
      XXZZ    -425.5498   XYZZ      -2.9467   YYZZ    -117.4640
      XZZZ      -0.0000   YZZZ      -0.0000   ZZZZ    -160.9695
 -----------------------------------------------------------------
 Calculating analytic gradient of the SCF energy
 Gradient of SCF Energy
            1           2           3           4           5           6
    1   0.0000089  -0.0000047  -0.0000253   0.0000856  -0.0001662   0.0000060
    2   0.0000140  -0.0000103   0.0000072  -0.0004103   0.0008917   0.0000010
    3  -0.0000057   0.0000220  -0.0000077  -0.0011756   0.0011761   0.0000012
            7           8           9          10          11          12
    1   0.0001662  -0.0000089  -0.0000856   0.0000047   0.0000253  -0.0000042
    2  -0.0008917  -0.0000140   0.0004103   0.0000103  -0.0000072   0.0000044
    3   0.0011761  -0.0000057  -0.0011756   0.0000220  -0.0000077   0.0000001
           13          14          15          16
    1  -0.0000013   0.0000042   0.0000013  -0.0000060
    2  -0.0000060  -0.0000044   0.0000060  -0.0000010
    3  -0.0000103   0.0000001  -0.0000103   0.0000012
 Max gradient component =       1.176E-03
 RMS gradient           =       3.961E-04
 Gradient time:  CPU 1.98 s  wall 1.90 s
 Geometry Optimization Parameters
   NAtoms,    NIC,     NZ,  NCons,   NDum,   NFix, NCnnct, MaxDiis
       16     111       0       1       0       0       0       0

 Cartesian Hessian Update
 Hessian Updated using BFGS Update


** CONSTRAINED OPTIMIZATION IN DELOCALIZED INTERNAL COORDINATES **
   Searching for a Minimum

   Optimization Cycle:   6

                       Coordinates (Angstroms)
     ATOM                X               Y               Z
      1  S         1.8303276057   -1.1560320489    0.3839211016
      2  C         3.2056370361   -0.1482233204    0.0666640645
      3  C         2.8300006164    1.0977228343   -0.3628537353
      4  C         1.4154342458    1.2473045653   -0.4570977053
      5  C         0.7185565127    0.1152491988   -0.0904311001
      6  H         0.9244068029    2.1485749091   -0.8066744065
      7  C        -0.7185565127   -0.1152491988   -0.0904311001
      8  S        -1.8303276057    1.1560320489    0.3839211016
      9  C        -1.4154342458   -1.2473045653   -0.4570977053
     10  C        -3.2056370361    0.1482233204    0.0666640645
     11  C        -2.8300006164   -1.0977228343   -0.3628537353
     12  H        -3.5375245175   -1.8789344145   -0.6164746102
     13  H         4.2048235139   -0.5333729358    0.2177761595
     14  H         3.5375245175    1.8789344145   -0.6164746102
     15  H        -4.2048235139    0.5333729358    0.2177761595
     16  H        -0.9244068029   -2.1485749091   -0.8066744065
   Point Group: c2    Number of degrees of freedom:    22


   Energy is  -1104.840452471

              Constraints and their Current Values
                                        Value     Constraint
   Dihedral:        4   5   7   9      140.000      140.000
 Hessian Updated using BFGS Update

 21 Hessian modes will be used to form the next step
  Hessian Eigenvalues:
     0.010044    0.034606    0.045004    0.045014    0.045041    0.045333
     0.125259    0.160290    0.161182    0.221605    0.245417    0.282689
     0.291841    0.316990    0.357342    0.360135    0.362644    0.383576
     0.461508    0.477671    0.532154

 Minimum Search - Taking Simple RFO Step
 Searching for Lamda that Minimizes Along All modes
 Value Taken    Lamda =   0.00000000
 Step Taken.  Stepsize is  0.000504

                             Maximum     Tolerance    Cnvgd?
         Gradient           0.000029      0.000300     YES
         Displacement       0.000213      0.001200     YES
         Energy change     -0.000000      0.000001     YES

 Final energy is   -1104.84045247085     


 ******************************
 **  OPTIMIZATION CONVERGED  **
 ******************************

                       Coordinates (Angstroms)
     ATOM                X               Y               Z
      1  S         1.8303276057   -1.1560320489    0.3839211016
      2  C         3.2056370361   -0.1482233204    0.0666640645
      3  C         2.8300006164    1.0977228343   -0.3628537353
      4  C         1.4154342458    1.2473045653   -0.4570977053
      5  C         0.7185565127    0.1152491988   -0.0904311001
      6  H         0.9244068029    2.1485749091   -0.8066744065
      7  C        -0.7185565127   -0.1152491988   -0.0904311001
      8  S        -1.8303276057    1.1560320489    0.3839211016
      9  C        -1.4154342458   -1.2473045653   -0.4570977053
     10  C        -3.2056370361    0.1482233204    0.0666640645
     11  C        -2.8300006164   -1.0977228343   -0.3628537353
     12  H        -3.5375245175   -1.8789344145   -0.6164746102
     13  H         4.2048235139   -0.5333729358    0.2177761595
     14  H         3.5375245175    1.8789344145   -0.6164746102
     15  H        -4.2048235139    0.5333729358    0.2177761595
     16  H        -0.9244068029   -2.1485749091   -0.8066744065

Z-matrix Print:
$molecule
0 1
S 
C  1 1.734303
H  2 1.081457 1 120.010769
C  2 1.370390 1 111.610768 3 179.856701 0
H  4 1.084069 2 123.340780 1 179.924848 0
C  4 1.425572 2 112.837112 1 0.746356 0
H  6 1.084251 4 123.911432 2 178.065881 0
C  6 1.378997 4 113.436595 2 -0.376145 0
C  8 1.455480 6 128.974960 4 178.310049 0
C  9 1.378997 8 128.974960 6 -139.999983 0
H  10 1.084251 9 122.632820 8 -0.154632 0
C  10 1.425572 9 113.436595 8 178.310049 0
H  12 1.084069 10 123.816650 9 -179.550095 0
C  12 1.370390 10 112.837112 9 -0.376145 0
H  14 1.081457 12 128.378279 10 -179.411933 0
S  14 1.734303 12 111.610768 10 0.746356 0
$end

 
 --------------------------------------------------------------
             Orbital Energies (a.u.) and Symmetries
 --------------------------------------------------------------
 
 Alpha MOs, Restricted
 -- Occupied --                  
-88.920 -88.920 -10.238 -10.238 -10.225 -10.225 -10.204 -10.204
  1 B     1 A     2 A     2 B     3 B     3 A     4 A     4 B                  
-10.203 -10.203  -7.979  -7.979  -5.943  -5.943  -5.940  -5.940
  5 B     5 A     6 B     6 A     7 A     7 B     8 B     8 A                  
 -5.936  -5.936  -0.900  -0.878  -0.771  -0.748  -0.738  -0.705
  9 B     9 A    10 A    10 B    11 A    11 B    12 A    12 B                  
 -0.603  -0.578  -0.554  -0.534  -0.525  -0.478  -0.419  -0.418
 13 A    13 B    14 A    14 B    15 A    15 B    16 B    16 A                  
 -0.408  -0.405  -0.399  -0.377  -0.374  -0.356  -0.346  -0.274
 17 A    17 B    18 A    19 A    18 B    19 B    20 A    21 A                  
 -0.262  -0.261  -0.218
 20 B    22 A    21 B                                                          
 -- Virtual --                   
 -0.053  -0.009  -0.006  -0.003   0.007   0.009   0.017   0.022
 23 A    22 B    24 A    23 B    25 A    24 B    25 B    26 A                  
  0.030   0.035   0.038   0.045   0.046   0.054   0.058   0.061
 27 A    28 A    26 B    27 B    29 A    30 A    28 B    29 B                  
  0.071   0.080   0.091   0.094   0.101   0.102   0.106   0.109
 30 B    31 A    31 B    32 A    32 B    33 A    34 A    35 A                  
  0.120   0.123   0.130   0.132   0.134   0.135   0.137   0.137
 33 B    34 B    36 A    37 A    35 B    36 B    38 A    37 B                  
  0.149   0.152   0.161   0.163   0.165   0.173   0.178   0.178
 39 A    38 B    40 A    41 A    39 B    40 B    41 B    42 A                  
  0.186   0.191   0.206   0.208   0.209   0.224   0.224   0.229
 43 A    42 B    43 B    44 A    44 B    45 A    45 B    46 A                  
  0.236   0.248   0.259   0.268   0.270   0.276   0.282   0.287
 46 B    47 A    47 B    48 A    48 B    49 A    49 B    50 A                  
  0.313   0.316   0.324   0.341   0.355   0.357   0.377   0.388
 50 B    51 A    51 B    52 A    52 B    53 A    53 B    54 A                  
  0.433   0.455   0.466   0.517   0.522   0.538   0.540   0.567
 54 B    55 B    55 A    56 A    56 B    57 A    57 B    58 B                  
  0.581   0.602   0.614   0.624   0.652   0.656   0.668   0.678
 58 A    59 A    59 B    60 A    60 B    61 B    61 A    62 A                  
  0.692   0.699   0.720   0.727   0.732   0.743   0.758   0.773
 62 B    63 A    63 B    64 A    64 B    65 B    65 A    66 A                  
  0.785   0.814   0.815   0.832   0.837   0.869   0.917   0.942
 66 B    67 A    67 B    68 B    68 A    69 A    69 B    70 A                  
  0.948   0.957   0.961   0.962   0.967   0.989   1.000   1.014
 70 B    71 B    71 A    72 A    72 B    73 A    73 B    74 B                  
  1.019   1.030   1.052   1.065   1.088   1.096   1.114   1.115
 75 B    74 A    75 A    76 A    77 A    76 B    78 A    77 B                  
  1.148   1.177   1.195   1.218   1.248   1.270   1.317   1.344
 78 B    79 A    80 A    79 B    81 A    80 B    81 B    82 A                  
  1.349   1.353   1.361   1.382   1.463   1.464   1.498   1.532
 82 B    83 A    83 B    84 A    85 A    84 B    85 B    86 B                  
  1.561   1.685   1.694   1.744   1.799   1.866   1.868   1.888
 86 A    87 A    87 B    88 A    89 A    88 B    90 A    89 B                  
  1.921   1.921   1.950   1.979   2.005   2.041   2.078   2.094
 90 B    91 A    92 A    91 B    93 A    92 B    94 A    93 B                  
  2.114   2.152   2.175   2.184   2.236   2.243   2.257   2.334
 94 B    95 A    96 A    95 B    96 B    97 A    97 B    98 A                  
  2.365   2.368   2.421   2.447   2.457   2.466   2.494   2.505
 98 B    99 A    99 B   100 A   100 B   101 A   101 B   102 A                  
  2.528   2.530   2.582   2.586   2.600   2.658   2.693   2.717
103 A   102 B   103 B   104 A   104 B   105 A   106 A   105 B                  
  2.744   2.851   2.859   2.910   2.931   3.147   3.197   3.269
106 B   107 A   107 B   108 A   108 B   109 B   109 A   110 B                  
  3.272   3.403   3.426   3.721   3.742   3.974   3.975   4.251
110 A   111 A   111 B   112 A   112 B   113 B   113 A   114 A                  
  4.305   4.317   4.329   4.417   4.537   4.657   4.712
115 A   114 B   115 B   116 A   116 B   117 A   117 B                          
 
 Beta MOs, Restricted
 -- Occupied --                  
-88.920 -88.920 -10.238 -10.238 -10.225 -10.225 -10.204 -10.204
  1 B     1 A     2 A     2 B     3 B     3 A     4 A     4 B                  
-10.203 -10.203  -7.979  -7.979  -5.943  -5.943  -5.940  -5.940
  5 B     5 A     6 B     6 A     7 A     7 B     8 B     8 A                  
 -5.936  -5.936  -0.900  -0.878  -0.771  -0.748  -0.738  -0.705
  9 B     9 A    10 A    10 B    11 A    11 B    12 A    12 B                  
 -0.603  -0.578  -0.554  -0.534  -0.525  -0.478  -0.419  -0.418
 13 A    13 B    14 A    14 B    15 A    15 B    16 B    16 A                  
 -0.408  -0.405  -0.399  -0.377  -0.374  -0.356  -0.346  -0.274
 17 A    17 B    18 A    19 A    18 B    19 B    20 A    21 A                  
 -0.262  -0.261  -0.218
 20 B    22 A    21 B                                                          
 -- Virtual --                   
 -0.053  -0.009  -0.006  -0.003   0.007   0.009   0.017   0.022
 23 A    22 B    24 A    23 B    25 A    24 B    25 B    26 A                  
  0.030   0.035   0.038   0.045   0.046   0.054   0.058   0.061
 27 A    28 A    26 B    27 B    29 A    30 A    28 B    29 B                  
  0.071   0.080   0.091   0.094   0.101   0.102   0.106   0.109
 30 B    31 A    31 B    32 A    32 B    33 A    34 A    35 A                  
  0.120   0.123   0.130   0.132   0.134   0.135   0.137   0.137
 33 B    34 B    36 A    37 A    35 B    36 B    38 A    37 B                  
  0.149   0.152   0.161   0.163   0.165   0.173   0.178   0.178
 39 A    38 B    40 A    41 A    39 B    40 B    41 B    42 A                  
  0.186   0.191   0.206   0.208   0.209   0.224   0.224   0.229
 43 A    42 B    43 B    44 A    44 B    45 A    45 B    46 A                  
  0.236   0.248   0.259   0.268   0.270   0.276   0.282   0.287
 46 B    47 A    47 B    48 A    48 B    49 A    49 B    50 A                  
  0.313   0.316   0.324   0.341   0.355   0.357   0.377   0.388
 50 B    51 A    51 B    52 A    52 B    53 A    53 B    54 A                  
  0.433   0.455   0.466   0.517   0.522   0.538   0.540   0.567
 54 B    55 B    55 A    56 A    56 B    57 A    57 B    58 B                  
  0.581   0.602   0.614   0.624   0.652   0.656   0.668   0.678
 58 A    59 A    59 B    60 A    60 B    61 B    61 A    62 A                  
  0.692   0.699   0.720   0.727   0.732   0.743   0.758   0.773
 62 B    63 A    63 B    64 A    64 B    65 B    65 A    66 A                  
  0.785   0.814   0.815   0.832   0.837   0.869   0.917   0.942
 66 B    67 A    67 B    68 B    68 A    69 A    69 B    70 A                  
  0.948   0.957   0.961   0.962   0.967   0.989   1.000   1.014
 70 B    71 B    71 A    72 A    72 B    73 A    73 B    74 B                  
  1.019   1.030   1.052   1.065   1.088   1.096   1.114   1.115
 75 B    74 A    75 A    76 A    77 A    76 B    78 A    77 B                  
  1.148   1.177   1.195   1.218   1.248   1.270   1.317   1.344
 78 B    79 A    80 A    79 B    81 A    80 B    81 B    82 A                  
  1.349   1.353   1.361   1.382   1.463   1.464   1.498   1.532
 82 B    83 A    83 B    84 A    85 A    84 B    85 B    86 B                  
  1.561   1.685   1.694   1.744   1.799   1.866   1.868   1.888
 86 A    87 A    87 B    88 A    89 A    88 B    90 A    89 B                  
  1.921   1.921   1.950   1.979   2.005   2.041   2.078   2.094
 90 B    91 A    92 A    91 B    93 A    92 B    94 A    93 B                  
  2.114   2.152   2.175   2.184   2.236   2.243   2.257   2.334
 94 B    95 A    96 A    95 B    96 B    97 A    97 B    98 A                  
  2.365   2.368   2.421   2.447   2.457   2.466   2.494   2.505
 98 B    99 A    99 B   100 A   100 B   101 A   101 B   102 A                  
  2.528   2.530   2.582   2.586   2.600   2.658   2.693   2.717
103 A   102 B   103 B   104 A   104 B   105 A   106 A   105 B                  
  2.744   2.851   2.859   2.910   2.931   3.147   3.197   3.269
106 B   107 A   107 B   108 A   108 B   109 B   109 A   110 B                  
  3.272   3.403   3.426   3.721   3.742   3.974   3.975   4.251
110 A   111 A   111 B   112 A   112 B   113 B   113 A   114 A                  
  4.305   4.317   4.329   4.417   4.537   4.657   4.712
115 A   114 B   115 B   116 A   116 B   117 A   117 B                          
 --------------------------------------------------------------
 
          Ground-State Mulliken Net Atomic Charges

     Atom                 Charge (a.u.)
  ----------------------------------------
      1 S                    -0.021086
      2 C                    -0.034739
      3 C                    -0.408543
      4 C                     0.274358
      5 C                    -0.245466
      6 H                     0.132886
      7 C                    -0.245465
      8 S                    -0.021086
      9 C                     0.274358
     10 C                    -0.034739
     11 C                    -0.408543
     12 H                     0.114878
     13 H                     0.187712
     14 H                     0.114878
     15 H                     0.187712
     16 H                     0.132886
  ----------------------------------------
  Sum of atomic charges =    -0.000000

 -----------------------------------------------------------------
                    Cartesian Multipole Moments
 -----------------------------------------------------------------
    Charge (ESU x 10^10)
                -0.0000
    Dipole Moment (Debye)
         X       0.0000      Y       0.0000      Z      -0.4338
       Tot       0.4338
    Quadrupole Moments (Debye-Ang)
        XX     -61.1559     XY       1.4071     YY     -69.1799
        XZ      -0.0000     YZ      -0.0000     ZZ     -77.6266
    Octopole Moments (Debye-Ang^2)
       XXX       0.0000    XXY      -0.0000    XYY       0.0000
       YYY       0.0000    XXZ       2.6825    XYZ      -8.3312
       YYZ      -5.1526    XZZ      -0.0000    YZZ       0.0000
       ZZZ       3.7186
    Hexadecapole Moments (Debye-Ang^3)
      XXXX   -1888.8216   XXXY     -19.5096   XXYY    -420.5152
      XYYY      15.8072   YYYY    -526.8406   XXXZ      -0.0000
      XXYZ      -0.0000   XYYZ      -0.0000   YYYZ      -0.0000
      XXZZ    -425.5498   XYZZ      -2.9467   YYZZ    -117.4640
      XZZZ      -0.0000   YZZZ      -0.0000   ZZZZ    -160.9695
 -----------------------------------------------------------------
Archival summary:
1\1\nid01043\OPT\ProcedureUnspecified\BasisUnspecified\286\FriSep218:10:512016FriSep218:10:512016\0\\#,OPT,ProcedureUnspecified,BasisUnspecified,\\0,1\S\C,1,1.7343\H,2,1.08146,1,120.011\C,2,1.37039,1,111.611,3,179.857,0\H,4,1.08407,2,123.341,1,179.925,0\C,4,1.42557,2,112.837,1,0.746356,0\H,6,1.08425,4,123.911,2,178.066,0\C,6,1.379,4,113.437,2,-0.376145,0\C,8,1.45548,6,128.975,4,178.31,0\C,9,1.379,8,128.975,6,-140,0\H,10,1.08425,9,122.633,8,-0.154632,0\C,10,1.42557,9,113.437,8,178.31,0\H,12,1.08407,10,123.817,9,-179.55,0\C,12,1.37039,10,112.837,9,-0.376145,0\H,14,1.08146,12,128.378,10,-179.412,0\S,14,1.7343,12,111.611,10,0.746356,0\\\@

 Total job time:  73.64s(wall), 84.10s(cpu) 
 Fri Sep  2 18:10:51 2016

        *************************************************************
        *                                                           *
        *  Thank you very much for using Q-Chem.  Have a nice day.  *
        *                                                           *
        *************************************************************


0 sent ACK to 0 
now end server 0 ... 
