srun -N 1 --ntasks-per-node 16 --nodelist nid01044 /global/project/projectdirs/jcesr/qchem/qc44/cnl_qc441/dist/exe/qcprog.cori.exe .pt_dft_-70.0.in.50178.qcin.1 /dev/shm/eg_qchem/qchem50178/
Process 0 of 16 is on nid01044 - thread support 0
Process 1 of 16 is on nid01044 - thread support 0
Process 2 of 16 is on nid01044 - thread support 0
Process 3 of 16 is on nid01044 - thread support 0
Process 4 of 16 is on nid01044 - thread support 0
Process 5 of 16 is on nid01044 - thread support 0
Process 6 of 16 is on nid01044 - thread support 0
Process 15 of 16 is on nid01044 - thread support 0
initial socket setup ...start
initial socket setup ...done 
now start server 0 ... 
nid01044 10.128.4
Q-Chem Developer Version! Running on 10.128.4.*
                  Welcome to Q-Chem
     A Quantum Leap Into The Future Of Chemistry


 Q-Chem 4.4, Q-Chem, Inc., Pleasanton, CA (2016)

 Y. Shao,  Z. Gan,  E. Epifanovsky,  A. T. B. Gilbert,  M. Wormit,  
 J. Kussmann,  A. W. Lange,  A. Behn,  J. Deng,  X. Feng,  D. Ghosh,  
 M. Goldey,  P. R. Horn,  L. D. Jacobson,  I. Kaliman,  F.Rob,  
 R. Z. Khaliullin,  T. Kus,  A. Landau,  J. Liu,  E. I. Proynov,  Y. M. Rhee,  
 R. M. Richard,  M. A. Rohrdanz,  R. P. Steele,  E. J. Sundstrom,  
 H. L. Woodcock III,  P. M. Zimmerman,  D. Zuev,  B. Albrecht,  E. Alguire,  
 B. Austin,  S. A. Baeppler,  G. J. O. Beran,  Y. A. Bernard,  E. Berquist,  
 K. Brandhorst,  K. B. Bravaya,  S. T. Brown,  D. Casanova,  C.-M. Chang,  
 Y. Chen,  S. H. Chien,  K. D. Closser,  M. P. Coons,  D. L. Crittenden,  
 S. Dasgupta,  M. Diedenhofen,  R. A. DiStasio Jr.,  H. Do,  A. D. Dutoi,  
 R. G. Edgar,  P.-T. Fang,  S. Fatehi,  Q. Feng,  L. Fusti-Molnar,  
 A. Ghysels,  A. Golubeva-Zadorozhnaya,  J. Gomes,  A. Gunina,  
 M. W. D. Hanson-Heine,  P. H. P. Harbach,  A. W. Hauser,  E. G. Hohenstein,  
 Z. C. Holden,  K. Hui,  T.-C. Jagau,  H. Ji,  B. Kaduk,  K. Khistyaev,  
 Jaehoon Kim,  Jihan Kim,  R. A. King,  P. Klunzinger,  D. Kosenkov,  
 T. Kowalczyk,  C. M. Krauter,  A. Kunitsa,  K. U. Lao,  A. Laurent,  
 K. V. Lawler,  D. Lefrancois,  S. Lehtola,  S. V. Levchenko,  C. Y. Lin,  
 Y.-S. Lin,  F. Liu,  E. Livshits,  R. C. Lochan,  A. Luenser,  P. Manohar,  
 S. F. Manzer,  S.-P. Mao,  Y. Mao,  N. Mardirossian,  A. V. Marenich,  
 L. A. Martinez-Martinez,  S. A. Maurer,  N. J. Mayhall,  J.-M. Mewes,  
 A. F. Morrison,  K. Nanda,  C. M. Oana,  R. Olivares-Amaya,  D. P. O'Neill,  
 J. A. Parkhill,  T. M. Perrine,  R. Peverati,  P. A. Pieniazek,  F. Plasser,  
 A. Prociuk,  D. R. Rehn,  E. Rosta,  N. J. Russ,  N. Sergueev,  
 S. M. Sharada,  S. Sharma,  D. W. Small,  A. Sodt,  T. Stauch,  T. Stein,  
 D. Stuck,  Y.-C. Su,  A. J. W. Thom,  T. Tsuchimochi,  L. Vogt,  O. Vydrov,  
 T. Wang,  M. A. Watson,  J. Wenzel,  A. White,  C. F. Williams,  
 V. Vanovschi,  S. Yeganeh,  S. R. Yost,  Z.-Q. You,  I. Y. Zhang,  X. Zhang,  
 Y. Zhao,  B. R. Brooks,  G. K. L. Chan,  D. M. Chipman,  C. J. Cramer,  
 W. A. Goddard III,  M. S. Gordon,  W. J. Hehre,  A. Klamt,  
 H. F. Schaefer III,  M. W. Schmidt,  C. D. Sherrill,  D. G. Truhlar,  
 A. Warshel,  X. Xu,  A. Aspuru-Guzik,  R. Baer,  A. T. Bell,  N. A. Besley,  
 J.-D. Chai,  A. Dreuw,  B. D. Dunietz,  T. R. Furlani,  S. R. Gwaltney,  
 C.-P. Hsu,  Y. Jung,  J. Kong,  D. S. Lambrecht,  W. Liang,  C. Ochsenfeld,  
 V. A. Rassolov,  L. V. Slipchenko,  J. E. Subotnik,  T. Van Voorhis,  
 J. M. Herbert,  A. I. Krylov,  P. M. W. Gill,  M. Head-Gordon

 Contributors to earlier versions of Q-Chem not listed above: 
 R. D. Adamson,  J. Baker,  E. F. C. Byrd,  A. K. Chakraborty,  C.-L. Cheng,  
 H. Dachsel,  R. J. Doerksen,  G. Hawkins,  A. Heyden,  S. Hirata,  
 G. Kedziora,  F. J. Keil,  C. Kelley,  P. P. Korambath,  W. Kurlancheek,  
 A. M. Lee,  M. S. Lee,  D. Liotard,  I. Lotan,  P. E. Maslen,  N. Nair,  
 D. Neuhauser,  R. Olson,  B. Peters,  J. Ritchie,  N. E. Schultz,  
 N. Shenvi,  A. C. Simmonett,  K. S. Thanthiriwatte,  Q. Wu,  W. Zhang

 Please cite Q-Chem as follows:
 Y. Shao et al., Mol. Phys. 113, 184-215 (2015)
 DOI: 10.1080/00268976.2014.952696

 Q-Chem 4.4.1 for Intel X86 EM64T Linux

 Parts of Q-Chem use Armadillo 5.200.1 (Boston Tea Smuggler).
 http://arma.sourceforge.net/

 Q-Chem begins on Fri Sep  2 18:18:58 2016  

Host: nid01043
0

     Scratch files written to /dev/shm/eg_qchem/qchem50178.0//
 Parallel job on  16  processors

Checking the input file for inconsistencies... 	...done.

--------------------------------------------------------------
User input:
--------------------------------------------------------------
$comment
<SCF Fix Strategy>{
    "current_method_id": 0, 
    "methods": [
        "increase_iter", 
        "rca_diis", 
        "gwh", 
        "gdm", 
        "rca", 
        "core+rca", 
        "fon"
    ], 
    "version": 2.0
}</SCF Fix Strategy>
$end


$molecule
 0  1
 S           1.82267924       -1.19997629        0.28714109
 C           3.20006180       -0.17260711        0.06528466
 C           2.82980603        1.10216298       -0.25610036
 C           1.41909100        1.26345446       -0.34254814
 C           0.71738150        0.10901545       -0.08456145
 H           0.93627498        2.19419272       -0.61095402
 C          -0.71741859       -0.10899254       -0.08455524
 S          -1.47783433       -1.06983437       -1.33829203
 C          -1.66438242        0.35070511        0.80066804
 C          -3.04464461       -0.85048905       -0.63197507
 C          -2.98656773       -0.07066005        0.48780633
 H          -3.85578822        0.18769394        1.07807983
 H           4.19429620       -0.57452886        0.18632814
 H           3.53860725        1.89960515       -0.43610218
 H          -3.90792635       -1.31042928       -1.08792931
 H          -1.41445644        0.95272803        1.66468897
$end


$rem
         jobtype = opt
        exchange = b3lyp
           basis = 6-31++g**
  max_scf_cycles = 200
      mem_static = 100
       mem_total = 1500
   scf_algorithm = diis
       scf_guess = sad
$end


$opt
CONSTRAINT
tors 4 5 7 9 -70.0
ENDCONSTRAINT
$end

--------------------------------------------------------------
 Atom   8: ( -1.6856189935, -0.7394446380,  0.9370177790)
         ->( -1.6856191073, -0.7394445533,  0.9370179045)
 Atom  10: ( -3.1575614493, -0.1237697468,  0.2615769555)
         ->( -3.1575614636, -0.1237697409,  0.2615768270)
 Atom  11: ( -2.9224080244,  0.6319101395, -0.8515570676)
         ->( -2.9224079428,  0.6319098828, -0.8515572963)
 Atom   9: ( -1.5392943685,  0.7365722454, -1.1672269902)
         ->( -1.5392942304,  0.7365724118, -1.1672268538)
 Atom   7: ( -0.7233541243,  0.0574765520, -0.2927252822)
         ->( -0.7233540699,  0.0574764079, -0.2927252504)
 Atom  16: ( -1.1547882748,  1.3144941221, -1.9976414214)
         ->( -1.1547880444,  1.3144944723, -1.9976410993)
 Atom  14: (  3.7077000723, -1.1081864082, -1.4235632245)
         ->(  3.7077002098, -1.1081867945, -1.4235628198)
 Atom  15: ( -4.1017187510, -0.3587837750,  0.7285138282)
         ->( -4.1017188586, -0.3587837222,  0.7285135479)
 ----------------------------------------------------------------
             Standard Nuclear Orientation (Angstroms)
    I     Atom           X                Y                Z
 ----------------------------------------------------------------
    1      S       1.6856191073     0.7394445533     0.9370179045
    2      C       3.1575614636     0.1237697409     0.2615768270
    3      C       2.9224079428    -0.6319098828    -0.8515572963
    4      C       1.5392942304    -0.7365724118    -1.1672268538
    5      C       0.7233540699    -0.0574764079    -0.2927252504
    6      H       1.1547880444    -1.3144944723    -1.9976410993
    7      C      -0.7233540699     0.0574764079    -0.2927252504
    8      S      -1.6856191073    -0.7394445533     0.9370179045
    9      C      -1.5392942304     0.7365724118    -1.1672268538
   10      C      -3.1575614636    -0.1237697409     0.2615768270
   11      C      -2.9224079428     0.6319098828    -0.8515572963
   12      H      -3.7077002098     1.1081867945    -1.4235628198
   13      H       4.1017188586     0.3587837222     0.7285135479
   14      H       3.7077002098    -1.1081867945    -1.4235628198
   15      H      -4.1017188586    -0.3587837222     0.7285135479
   16      H      -1.1547880444     1.3144944723    -1.9976410993
 ----------------------------------------------------------------
 Molecular Point Group                 C2    NOp =  2
 Largest Abelian Subgroup              C2    NOp =  2
 Nuclear Repulsion Energy =   630.7436304924 hartrees
 There are       43 alpha and       43 beta electrons
 Requested basis set is 6-31++G(d,p)
 There are 76 shells and 234 basis functions

 Total QAlloc Memory Limit   1500 MB
 Mega-Array Size        98 MB
 MEM_STATIC part       100 MB
 A cutoff of  1.0D-11 yielded   2491 shell pairs
 There are     24591 function pairs
 
 -------------------------------------------------------
 OpenMP Integral Computing Module                       
 Release: version 1.0, May 2013, Q-Chem Inc. Pittsburgh 
 -------------------------------------------------------
 Integral Job Info:
 Integral job number is                      11
 Integral operator is                         1
 short-range coefficients                     0
 long-range coefficients              100000000
 Omega coefficients                           0
 if combine SR and LR in K                    0
 Integral screening is                        0
 Integral computing path is                   2
 max size of driver memory is            800000
 size of driver memory is                593474
 size of scratch memory is             15166112
 max col of scratch BK array               1296
 max len of scratch array in speh3          155
 max len of scratch index in speh4           18
 max int batch size is                      520
 min int batch size is                       52
 fixed nKL is                                52
 max L of basis functions is                  2
 order of int derivative is                   0
 number of shells is                         76
 number of basis is                         234
 number of cartesian basis is               234
 number of contracted shell pairs          2491
 number of primitive shell pairs           8037
 maxK2 (contraction) of shell pair           36
 max number of K2 of shell pair               1
 max number of CS2 of shell pair            258
 max number of PS2 of shell pair           1500
 mem total for path MDJ                   51834
 -------------------------------------------------------
 Smallest overlap matrix eigenvalue = 1.11E-06

 Q-Chem warning in module /project/projectdirs/jcesr/qchem/qc44/cnl_qc441/compile/cori/qc_src/stvman/mkSTV.C, line 257:

 Overlap eigenvalue is smaller than square root of threshold


 Scale SEOQF with 1.000000e-01/1.000000e-01/1.000000e-01

 Standard Electronic Orientation quadrupole field applied
 Nucleus-field energy     =     0.0000000099 hartrees
 Guess from superposition of atomic densities
 Warning:  Energy on first SCF cycle will be non-variational
 A restricted hybrid HF-DFT SCF calculation will be
 performed using Pulay DIIS extrapolation
 Exchange:     0.2000 Hartree-Fock + 0.0800 Slater + 0.7200 B88
 Correlation:  0.1900 VWN1RPA + 0.8100 LYP
 Using SG-1 standard quadrature grid
 SCF converges when DIIS error is below 1.0E-08
 ---------------------------------------
  Cycle       Energy         DIIS Error
 ---------------------------------------
    1   -1107.2064897321      4.43E-02
    2    -971.4097755847      4.19E-01
    3    -972.8158420535      4.39E-01
    4    -941.5456768894      5.05E-01
    5    -994.3118232632      3.50E-01
    6    -983.9350194607      4.11E-01
    7    -588.1275256747      1.09E+00
    8    2025.7641531680      6.73E+00
    9    -576.6644462152      1.47E+00
   10    -576.4957748943      1.47E+00
   11   -1216.0076187554      4.60E-01
   12    1790.6623459576      6.02E+00
   13    1808.7070209367      6.06E+00
   14    -902.7505442080      5.74E-01
   15    -901.3696521572      5.81E-01
   16    -873.4509863674      7.79E-01
   17   -1029.2317621026      7.52E-02
   18   -1077.1333929365      4.71E-02
   19   -1086.3404190086      4.73E-02
   20   -1102.0301328273      1.62E-02
   21   -1097.0614701368      2.69E-02
   22   -1095.9589420065      1.05E-01
   23   -1098.8063357715      1.36E-02
   24   -1104.5529796781      5.40E-03
   25   -1104.7423670146      3.26E-03
   26   -1104.8080690286      2.01E-03
   27   -1104.8289838493      1.05E-03
   28   -1104.8371769747      2.08E-04
   29   -1104.8375021458      7.49E-05
   30   -1104.8375408479      2.45E-05
   31   -1104.8375429582      3.34E-06
   32   -1104.8375423147      9.32E-07
   33   -1104.8375422267      1.75E-07
   34   -1104.8375420013      6.81E-08
   35   -1104.8375419818      3.26E-08
   36   -1104.8375423206      7.08E-08
   37   -1104.8375421449      1.01E-07
   38   -1104.8375426844      4.66E-08
   39   -1104.8375426621      3.41E-08
   40   -1104.8375427311      4.58E-08
   41   -1104.8375427629      4.19E-08
   42   -1104.8375428178      4.23E-08
   43   -1104.8375427494      3.83E-08
   44   -1104.8375426403      1.99E-08
   45   -1104.8375426092      2.11E-08
   46   -1104.8375423584      1.31E-08
   47   -1104.8375425576      2.75E-08
   48   -1104.8375425514      2.43E-08
   49   -1104.8375426399      2.73E-08
   50   -1104.8375427826      3.62E-08
   51   -1104.8375426062      2.81E-08
   52   -1104.8375427838      4.75E-08
   53   -1104.8375427632      5.79E-08
   54   -1104.8375429088      7.33E-08
   55   -1104.8375428560      7.41E-08
   56   -1104.8375429183      6.79E-08
   57   -1104.8375429202      7.27E-08
   58   -1104.8375427223      3.53E-08
   59   -1104.8375426332      2.58E-08
   60   -1104.8375428497      4.78E-08
   61   -1104.8375428780      4.80E-08
   62   -1104.8375427498      2.46E-08
   63   -1104.8375427754      3.37E-08
   64   -1104.8375427619      3.13E-08
   65   -1104.8375428225      3.75E-08
   66   -1104.8375428723      4.58E-08
   67   -1104.8375428819      3.72E-08
   68   -1104.8375428379      3.85E-08
   69   -1104.8375429310      4.24E-08
   70   -1104.8375431786      5.97E-08
   71   -1104.8375433047      8.00E-08
   72   -1104.8375432640      7.45E-08
   73   -1104.8375432322      7.70E-08
   74   -1104.8375431722      6.14E-08
   75   -1104.8375433891      8.31E-08
   76   -1104.8375433734      9.16E-08
   77   -1104.8375433241      8.59E-08
   78   -1104.8375433215      6.55E-08
   79   -1104.8375431380      4.87E-08
   80   -1104.8375429563      2.78E-08
   81   -1104.8375428815      1.49E-08
   82   -1104.8375429660      2.25E-08
   83   -1104.8375429602      2.48E-08
   84   -1104.8375427937      1.78E-08
   85   -1104.8375427121      2.67E-08
   86   -1104.8375426909      1.95E-08
   87   -1104.8375431418      4.96E-08
   88   -1104.8375430991      3.99E-08
   89   -1104.8375430299      4.26E-08
   90   -1104.8375430979      4.07E-08
   91   -1104.8375430928      4.30E-08
   92   -1104.8375430794      4.29E-08
   93   -1104.8375432570      6.56E-08
   94   -1104.8375432249      5.28E-08
   95   -1104.8375432570      5.76E-08
   96   -1104.8375431178      2.92E-08
   97   -1104.8375430192      1.57E-08
   98   -1104.8375430377      1.44E-08
   99   -1104.8375431180      2.47E-08
  100   -1104.8375432587      5.22E-08
  101   -1104.8375434099      6.75E-08
  102   -1104.8375433953      6.80E-08
  103   -1104.8375435468      9.76E-08
  104   -1104.8375431833      5.47E-08
  105   -1104.8375430191      2.26E-08
  106   -1104.8375427504      4.73E-08
  107   -1104.8375427984      4.54E-08
  108   -1104.8375430809      2.37E-08
  109   -1104.8375430801      1.82E-08
  110   -1104.8375432246      1.12E-08
  111   -1104.8375432592      6.95E-09 Convergence criterion met
 ---------------------------------------
 SCF time:  CPU 42.41 s  wall 35.74 s
 SCF   energy in the final basis set = -1104.8375432592
 Total energy in the final basis set = -1104.8375432592
 
 --------------------------------------------------------------
             Orbital Energies (a.u.) and Symmetries
 --------------------------------------------------------------
 
 Alpha MOs, Restricted
 -- Occupied --                  
-88.918 -88.918 -10.235 -10.234 -10.223 -10.223 -10.203 -10.203
  1 B     1 A     2 A     2 B     3 B     3 A     4 A     4 B                  
-10.202 -10.202  -7.978  -7.978  -5.942  -5.942  -5.938  -5.938
  5 B     5 A     6 B     6 A     7 B     7 A     8 B     8 A                  
 -5.935  -5.935  -0.900  -0.878  -0.771  -0.744  -0.740  -0.705
  9 B     9 A    10 A    10 B    11 A    12 A    11 B    12 B                  
 -0.603  -0.570  -0.563  -0.535  -0.524  -0.478  -0.418  -0.415
 13 A    14 A    13 B    14 B    15 A    15 B    16 A    17 A                  
 -0.413  -0.406  -0.395  -0.375  -0.374  -0.351  -0.349  -0.264
 16 B    17 B    18 A    18 B    19 A    20 A    19 B    21 A                  
 -0.257  -0.255  -0.232
 20 B    21 B    22 A                                                          
 -- Virtual --                   
 -0.041  -0.025  -0.006  -0.002   0.006   0.014   0.019   0.026
 22 B    23 A    24 A    23 B    25 A    24 B    26 A    25 B                  
  0.026   0.035   0.036   0.042   0.046   0.047   0.065   0.066
 27 A    26 B    28 A    27 B    29 A    28 B    30 A    29 B                  
  0.071   0.072   0.085   0.101   0.102   0.104   0.107   0.116
 31 A    30 B    32 A    31 B    33 A    32 B    34 A    35 A                  
  0.117   0.118   0.123   0.130   0.132   0.133   0.139   0.144
 33 B    34 B    36 A    35 B    37 A    36 B    38 A    37 B                  
  0.147   0.150   0.159   0.162   0.163   0.175   0.178   0.183
 38 B    39 A    40 A    39 B    41 A    42 A    40 B    43 A                  
  0.184   0.190   0.194   0.205   0.214   0.219   0.224   0.230
 41 B    42 B    43 B    44 A    44 B    45 A    45 B    46 A                  
  0.240   0.251   0.257   0.263   0.273   0.276   0.301   0.301
 46 B    47 B    47 A    48 B    48 A    49 A    49 B    50 A                  
  0.310   0.317   0.325   0.332   0.355   0.367   0.373   0.396
 50 B    51 B    51 A    52 A    53 A    52 B    53 B    54 A                  
  0.434   0.469   0.473   0.504   0.525   0.526   0.553   0.575
 54 B    55 A    56 A    55 B    57 A    56 B    57 B    58 A                  
  0.581   0.591   0.610   0.646   0.652   0.654   0.670   0.674
 58 B    59 A    59 B    60 A    60 B    61 A    62 A    61 B                  
  0.689   0.699   0.726   0.726   0.740   0.762   0.766   0.775
 62 B    63 A    64 A    63 B    64 B    65 B    65 A    66 B                  
  0.777   0.803   0.806   0.829   0.843   0.900   0.907   0.941
 66 A    67 A    67 B    68 A    68 B    69 A    69 B    70 A                  
  0.953   0.956   0.965   0.968   0.969   0.991   0.994   1.017
 70 B    71 A    71 B    72 A    72 B    73 A    73 B    74 B                  
  1.018   1.029   1.043   1.051   1.083   1.099   1.102   1.105
 74 A    75 B    76 B    75 A    76 A    77 B    77 A    78 A                  
  1.132   1.185   1.208   1.222   1.236   1.285   1.320   1.349
 78 B    79 A    80 A    79 B    80 B    81 A    81 B    82 A                  
  1.354   1.363   1.365   1.388   1.459   1.469   1.495   1.532
 82 B    83 A    83 B    84 A    84 B    85 B    85 A    86 A                  
  1.572   1.693   1.695   1.795   1.815   1.859   1.886   1.888
 86 B    87 A    87 B    88 A    88 B    89 A    90 A    89 B                  
  1.917   1.928   1.946   1.963   2.022   2.023   2.069   2.085
 90 B    91 A    92 A    91 B    92 B    93 A    93 B    94 A                  
  2.135   2.169   2.190   2.210   2.220   2.250   2.260   2.333
 95 A    94 B    95 B    96 B    96 A    97 B    97 A    98 A                  
  2.367   2.372   2.433   2.450   2.462   2.483   2.495   2.514
 99 A    98 B    99 B   100 A   101 A   100 B   101 B   102 B                  
  2.518   2.535   2.590   2.590   2.632   2.635   2.701   2.713
102 A   103 A   104 A   103 B   104 B   105 A   105 B   106 A                  
  2.767   2.817   2.878   2.883   2.949   3.164   3.193   3.276
106 B   107 A   108 A   107 B   108 B   109 A   109 B   110 B                  
  3.277   3.408   3.434   3.728   3.751   3.963   3.978   4.281
110 A   111 A   111 B   112 A   112 B   113 A   113 B   114 A                  
  4.314   4.322   4.332   4.432   4.538   4.663   4.719
115 A   114 B   115 B   116 A   116 B   117 A   117 B                          
 
 Beta MOs, Restricted
 -- Occupied --                  
-88.918 -88.918 -10.235 -10.234 -10.223 -10.223 -10.203 -10.203
  1 B     1 A     2 A     2 B     3 B     3 A     4 A     4 B                  
-10.202 -10.202  -7.978  -7.978  -5.942  -5.942  -5.938  -5.938
  5 B     5 A     6 B     6 A     7 B     7 A     8 B     8 A                  
 -5.935  -5.935  -0.900  -0.878  -0.771  -0.744  -0.740  -0.705
  9 B     9 A    10 A    10 B    11 A    12 A    11 B    12 B                  
 -0.603  -0.570  -0.563  -0.535  -0.524  -0.478  -0.418  -0.415
 13 A    14 A    13 B    14 B    15 A    15 B    16 A    17 A                  
 -0.413  -0.406  -0.395  -0.375  -0.374  -0.351  -0.349  -0.264
 16 B    17 B    18 A    18 B    19 A    20 A    19 B    21 A                  
 -0.257  -0.255  -0.232
 20 B    21 B    22 A                                                          
 -- Virtual --                   
 -0.041  -0.025  -0.006  -0.002   0.006   0.014   0.019   0.026
 22 B    23 A    24 A    23 B    25 A    24 B    26 A    25 B                  
  0.026   0.035   0.036   0.042   0.046   0.047   0.065   0.066
 27 A    26 B    28 A    27 B    29 A    28 B    30 A    29 B                  
  0.071   0.072   0.085   0.101   0.102   0.104   0.107   0.116
 31 A    30 B    32 A    31 B    33 A    32 B    34 A    35 A                  
  0.117   0.118   0.123   0.130   0.132   0.133   0.139   0.144
 33 B    34 B    36 A    35 B    37 A    36 B    38 A    37 B                  
  0.147   0.150   0.159   0.162   0.163   0.175   0.178   0.183
 38 B    39 A    40 A    39 B    41 A    42 A    40 B    43 A                  
  0.184   0.190   0.194   0.205   0.214   0.219   0.224   0.230
 41 B    42 B    43 B    44 A    44 B    45 A    45 B    46 A                  
  0.240   0.251   0.257   0.263   0.273   0.276   0.301   0.301
 46 B    47 B    47 A    48 B    48 A    49 A    49 B    50 A                  
  0.310   0.317   0.325   0.332   0.355   0.367   0.373   0.396
 50 B    51 B    51 A    52 A    53 A    52 B    53 B    54 A                  
  0.434   0.469   0.473   0.504   0.525   0.526   0.553   0.575
 54 B    55 A    56 A    55 B    57 A    56 B    57 B    58 A                  
  0.581   0.591   0.610   0.646   0.652   0.654   0.670   0.674
 58 B    59 A    59 B    60 A    60 B    61 A    62 A    61 B                  
  0.689   0.699   0.726   0.726   0.740   0.762   0.766   0.775
 62 B    63 A    64 A    63 B    64 B    65 B    65 A    66 B                  
  0.777   0.803   0.806   0.829   0.843   0.900   0.907   0.941
 66 A    67 A    67 B    68 A    68 B    69 A    69 B    70 A                  
  0.953   0.956   0.965   0.968   0.969   0.991   0.994   1.017
 70 B    71 A    71 B    72 A    72 B    73 A    73 B    74 B                  
  1.018   1.029   1.043   1.051   1.083   1.099   1.102   1.105
 74 A    75 B    76 B    75 A    76 A    77 B    77 A    78 A                  
  1.132   1.185   1.208   1.222   1.236   1.285   1.320   1.349
 78 B    79 A    80 A    79 B    80 B    81 A    81 B    82 A                  
  1.354   1.363   1.365   1.388   1.459   1.469   1.495   1.532
 82 B    83 A    83 B    84 A    84 B    85 B    85 A    86 A                  
  1.572   1.693   1.695   1.795   1.815   1.859   1.886   1.888
 86 B    87 A    87 B    88 A    88 B    89 A    90 A    89 B                  
  1.917   1.928   1.946   1.963   2.022   2.023   2.069   2.085
 90 B    91 A    92 A    91 B    92 B    93 A    93 B    94 A                  
  2.135   2.169   2.190   2.210   2.220   2.250   2.260   2.333
 95 A    94 B    95 B    96 B    96 A    97 B    97 A    98 A                  
  2.367   2.372   2.433   2.450   2.462   2.483   2.495   2.514
 99 A    98 B    99 B   100 A   101 A   100 B   101 B   102 B                  
  2.518   2.535   2.590   2.590   2.632   2.635   2.701   2.713
102 A   103 A   104 A   103 B   104 B   105 A   105 B   106 A                  
  2.767   2.817   2.878   2.883   2.949   3.164   3.193   3.276
106 B   107 A   108 A   107 B   108 B   109 A   109 B   110 B                  
  3.277   3.408   3.434   3.728   3.751   3.963   3.978   4.281
110 A   111 A   111 B   112 A   112 B   113 A   113 B   114 A                  
  4.314   4.322   4.332   4.432   4.538   4.663   4.719
115 A   114 B   115 B   116 A   116 B   117 A   117 B                          
 --------------------------------------------------------------
 
          Ground-State Mulliken Net Atomic Charges

     Atom                 Charge (a.u.)
  ----------------------------------------
      1 S                     0.030333
      2 C                    -0.023706
      3 C                    -0.430033
      4 C                     0.377104
      5 C                    -0.395900
      6 H                     0.137406
      7 C                    -0.395900
      8 S                     0.030333
      9 C                     0.377104
     10 C                    -0.023706
     11 C                    -0.430033
     12 H                     0.116445
     13 H                     0.188351
     14 H                     0.116445
     15 H                     0.188351
     16 H                     0.137406
  ----------------------------------------
  Sum of atomic charges =     0.000000

 -----------------------------------------------------------------
                    Cartesian Multipole Moments
 -----------------------------------------------------------------
    Charge (ESU x 10^10)
                 0.0000
    Dipole Moment (Debye)
         X       0.0000      Y      -0.0000      Z      -0.8301
       Tot       0.8301
    Quadrupole Moments (Debye-Ang)
        XX     -61.1196     XY      -1.4306     YY     -74.9829
        XZ      -0.0000     YZ      -0.0000     ZZ     -71.2753
    Octopole Moments (Debye-Ang^2)
       XXX       0.0000    XXY      -0.0000    XYY       0.0000
       YYY      -0.0000    XXZ       6.8998    XYZ      13.4243
       YYZ      -2.6149    XZZ       0.0000    YZZ      -0.0000
       ZZZ      -1.6778
    Hexadecapole Moments (Debye-Ang^3)
      XXXX   -1873.0457   XXXY      -1.0155   XXYY    -415.7816
      XYYY       4.2459   YYYY    -277.9937   XXXZ      -0.0000
      XXYZ       0.0000   XYYZ      -0.0000   YYYZ       0.0000
      XXZZ    -410.2070   XYZZ      -9.2080   YYZZ    -105.2470
      XZZZ      -0.0000   YZZZ      -0.0000   ZZZZ    -424.4143
 -----------------------------------------------------------------
 Calculating analytic gradient of the SCF energy
 Gradient of SCF Energy
            1           2           3           4           5           6
    1  -0.0013506   0.0007760  -0.0020647   0.0018277  -0.0069967   0.0013448
    2   0.0006270  -0.0029968   0.0015073   0.0005522  -0.0005150   0.0002861
    3  -0.0016927  -0.0033451   0.0021709   0.0009225   0.0004554   0.0009064
            7           8           9          10          11          12
    1   0.0069967   0.0013506  -0.0018277  -0.0007760   0.0020647   0.0011425
    2   0.0005150  -0.0006270  -0.0005522   0.0029968  -0.0015073  -0.0007258
    3   0.0004554  -0.0016927   0.0009225  -0.0033451   0.0021709   0.0008439
           13          14          15          16
    1  -0.0017999  -0.0011425   0.0017999  -0.0013448
    2  -0.0002933   0.0007258   0.0002933  -0.0002861
    3  -0.0002612   0.0008439  -0.0002612   0.0009064
 Max gradient component =       6.997E-03
 RMS gradient           =       2.038E-03
 Gradient time:  CPU 1.91 s  wall 1.90 s
 Geometry Optimization Parameters
   NAtoms,    NIC,     NZ,  NCons,   NDum,   NFix, NCnnct, MaxDiis
       16     111       0       1       0       0       0       0


** CONSTRAINED OPTIMIZATION IN DELOCALIZED INTERNAL COORDINATES **
   Searching for a Minimum

   Optimization Cycle:   1

                       Coordinates (Angstroms)
     ATOM                X               Y               Z
      1  S         1.6856191073    0.7394445533    0.9370179045
      2  C         3.1575614636    0.1237697409    0.2615768270
      3  C         2.9224079428   -0.6319098828   -0.8515572963
      4  C         1.5392942304   -0.7365724118   -1.1672268538
      5  C         0.7233540699   -0.0574764079   -0.2927252504
      6  H         1.1547880444   -1.3144944723   -1.9976410993
      7  C        -0.7233540699    0.0574764079   -0.2927252504
      8  S        -1.6856191073   -0.7394445533    0.9370179045
      9  C        -1.5392942304    0.7365724118   -1.1672268538
     10  C        -3.1575614636   -0.1237697409    0.2615768270
     11  C        -2.9224079428    0.6319098828   -0.8515572963
     12  H        -3.7077002098    1.1081867945   -1.4235628198
     13  H         4.1017188586    0.3587837222    0.7285135479
     14  H         3.7077002098   -1.1081867945   -1.4235628198
     15  H        -4.1017188586   -0.3587837222    0.7285135479
     16  H        -1.1547880444    1.3144944723   -1.9976410993
   Point Group: c2    Number of degrees of freedom:    22


   Energy is  -1104.837543259

              Constraints and their Current Values
                                        Value     Constraint
   Dihedral:        4   5   7   9      -70.000      -70.000

 Attempting to Generate Delocalized Internal Coordinates

 21 Hessian modes will be used to form the next step
  Hessian Eigenvalues:
     0.045000    0.045000    0.045000    0.045002    0.045004    0.045013
     0.159937    0.159990    0.160000    0.221280    0.237833    0.249997
     0.296078    0.314672    0.357149    0.357543    0.360899    0.380793
     0.408411    0.470750    0.505998

 Minimum Search - Taking Simple RFO Step
 Searching for Lamda that Minimizes Along All modes
 Value Taken    Lamda =  -0.00067060
 Step Taken.  Stepsize is  0.061501

                             Maximum     Tolerance    Cnvgd?
         Gradient           0.008383      0.000300      NO
         Displacement       0.024154      0.001200      NO
         Energy change     *********      0.000001      NO


 New Cartesian Coordinates Obtained by Inverse Iteration

 Displacement from previous Coordinates is:  0.142578
 ----------------------------------------------------------------
             Standard Nuclear Orientation (Angstroms)
    I     Atom           X                Y                Z
 ----------------------------------------------------------------
    1      S       1.7050969531     0.7282760525     0.9532281177
    2      C       3.1740931569     0.1262011427     0.2579648307
    3      C       2.9299137935    -0.6301842909    -0.8586113548
    4      C       1.5390978541    -0.7370891716    -1.1608604364
    5      C       0.7299808307    -0.0560761674    -0.2796367340
    6      H       1.1406536112    -1.3098283265    -1.9908533860
    7      C      -0.7299808307     0.0560761674    -0.2796367340
    8      S      -1.7050969531    -0.7282760525     0.9532281177
    9      C      -1.5390978541     0.7370891716    -1.1608604364
   10      C      -3.1740931569    -0.1262011427     0.2579648307
   11      C      -2.9299137935     0.6301842909    -0.8586113548
   12      H      -3.7122993062     1.1032532563    -1.4416182910
   13      H       4.1257511437     0.3626307203     0.7147822137
   14      H       3.7122993062    -1.1032532563    -1.4416182910
   15      H      -4.1257511437    -0.3626307203     0.7147822137
   16      H      -1.1406536112     1.3098283265    -1.9908533860
 ----------------------------------------------------------------
 Molecular Point Group                 C2    NOp =  2
 Largest Abelian Subgroup              C2    NOp =  2
 Nuclear Repulsion Energy =   628.6703823037 hartrees
 There are       43 alpha and       43 beta electrons
 Applying Cartesian multipole field
    Component          Value
    ---------          -----
     (2,0,0)        1.00000E-11
     (0,2,0)        2.00000E-11
     (0,0,2)       -3.00000E-11
 Nucleus-field energy     =     0.0000000099 hartrees
 Requested basis set is 6-31++G(d,p)
 There are 76 shells and 234 basis functions
 A cutoff of  1.0D-11 yielded   2489 shell pairs
 There are     24583 function pairs
 Smallest overlap matrix eigenvalue = 1.20E-06

 Q-Chem warning in module /project/projectdirs/jcesr/qchem/qc44/cnl_qc441/compile/cori/qc_src/stvman/mkSTV.C, line 257:

 Overlap eigenvalue is smaller than square root of threshold

 Guess MOs from SCF MO coefficient file
 Reading MOs from coefficient file
 Reading MOs from coefficient file
 A restricted hybrid HF-DFT SCF calculation will be
 performed using Pulay DIIS extrapolation
 Exchange:     0.2000 Hartree-Fock + 0.0800 Slater + 0.7200 B88
 Correlation:  0.1900 VWN1RPA + 0.8100 LYP
 Using SG-1 standard quadrature grid
 SCF converges when DIIS error is below 1.0E-08
 Geometry optimization detected.  Setting ReadMinima to 0
 Setting SaveMinima to 0
 ---------------------------------------
  Cycle       Energy         DIIS Error
 ---------------------------------------
    1   -1104.8187452341      7.30E-04
    2   -1104.8376774503      1.58E-04
    3   -1104.8369332815      3.50E-04
    4   -1104.8378875516      2.87E-05
    5   -1104.8378924905      1.23E-05
    6   -1104.8378934960      3.64E-06
    7   -1104.8378935910      1.41E-06
    8   -1104.8378936022      2.86E-07
    9   -1104.8378936022      3.60E-08
   10   -1104.8378936035      8.73E-09 Convergence criterion met
 ---------------------------------------
 SCF time:  CPU 5.40 s  wall 4.74 s
 SCF   energy in the final basis set = -1104.8378936035
 Total energy in the final basis set = -1104.8378936035
 
 --------------------------------------------------------------
             Orbital Energies (a.u.) and Symmetries
 --------------------------------------------------------------
 
 Alpha MOs, Restricted
 -- Occupied --                  
-88.919 -88.919 -10.236 -10.236 -10.225 -10.225 -10.204 -10.204
  1 B     1 A     2 A     2 B     3 B     3 A     4 A     4 B                  
-10.203 -10.203  -7.978  -7.978  -5.942  -5.942  -5.939  -5.939
  5 B     5 A     6 B     6 A     7 B     7 A     8 B     8 A                  
 -5.935  -5.935  -0.898  -0.877  -0.769  -0.743  -0.739  -0.705
  9 B     9 A    10 A    10 B    11 A    12 A    11 B    12 B                  
 -0.601  -0.570  -0.562  -0.534  -0.523  -0.477  -0.418  -0.414
 13 A    14 A    13 B    14 B    15 A    15 B    16 A    17 A                  
 -0.412  -0.405  -0.394  -0.375  -0.374  -0.351  -0.349  -0.264
 16 B    17 B    18 A    18 B    19 A    20 A    19 B    21 A                  
 -0.257  -0.256  -0.232
 20 B    21 B    22 A                                                          
 -- Virtual --                   
 -0.041  -0.025  -0.006  -0.002   0.006   0.014   0.019   0.025
 22 B    23 A    24 A    23 B    25 A    24 B    26 A    25 B                  
  0.026   0.035   0.035   0.042   0.045   0.046   0.065   0.065
 27 A    28 A    26 B    27 B    29 A    28 B    30 A    29 B                  
  0.071   0.072   0.086   0.100   0.102   0.105   0.107   0.116
 31 A    30 B    32 A    31 B    33 A    32 B    34 A    35 A                  
  0.116   0.117   0.122   0.130   0.132   0.133   0.139   0.144
 33 B    34 B    36 A    35 B    37 A    36 B    38 A    37 B                  
  0.145   0.150   0.159   0.161   0.163   0.174   0.178   0.182
 38 B    39 A    40 A    39 B    41 A    42 A    40 B    43 A                  
  0.184   0.189   0.195   0.204   0.212   0.219   0.223   0.229
 41 B    42 B    43 B    44 A    44 B    45 A    45 B    46 A                  
  0.240   0.250   0.257   0.263   0.272   0.275   0.299   0.301
 46 B    47 B    47 A    48 B    48 A    49 A    49 B    50 A                  
  0.308   0.315   0.323   0.330   0.355   0.365   0.372   0.395
 50 B    51 B    51 A    52 A    53 A    52 B    53 B    54 A                  
  0.432   0.467   0.473   0.501   0.524   0.524   0.552   0.574
 54 B    55 A    56 A    55 B    56 B    57 A    57 B    58 A                  
  0.580   0.592   0.609   0.644   0.649   0.654   0.669   0.674
 58 B    59 A    59 B    60 A    60 B    61 A    62 A    61 B                  
  0.689   0.699   0.725   0.726   0.737   0.760   0.765   0.773
 62 B    63 A    64 A    63 B    64 B    65 B    65 A    66 B                  
  0.776   0.802   0.804   0.828   0.842   0.898   0.905   0.943
 66 A    67 A    67 B    68 A    68 B    69 A    69 B    70 A                  
  0.953   0.957   0.963   0.967   0.970   0.989   0.993   1.015
 70 B    71 A    71 B    72 A    72 B    73 A    73 B    74 A                  
  1.017   1.028   1.041   1.050   1.081   1.099   1.101   1.104
 74 B    75 B    76 B    75 A    76 A    77 B    77 A    78 A                  
  1.129   1.183   1.206   1.219   1.235   1.284   1.323   1.348
 78 B    79 A    80 A    79 B    80 B    81 A    81 B    82 A                  
  1.353   1.360   1.362   1.389   1.455   1.463   1.494   1.529
 82 B    83 A    83 B    84 A    84 B    85 B    85 A    86 A                  
  1.570   1.692   1.694   1.787   1.811   1.860   1.880   1.883
 86 B    87 A    87 B    88 A    88 B    89 A    90 A    89 B                  
  1.912   1.923   1.942   1.959   2.018   2.020   2.064   2.082
 90 B    91 A    92 A    91 B    92 B    93 A    93 B    94 A                  
  2.131   2.166   2.186   2.207   2.215   2.246   2.254   2.325
 95 A    94 B    95 B    96 B    96 A    97 B    97 A    98 A                  
  2.365   2.370   2.431   2.445   2.460   2.477   2.490   2.512
 99 A    98 B    99 B   100 A   101 A   100 B   101 B   102 B                  
  2.514   2.530   2.584   2.584   2.628   2.629   2.694   2.706
102 A   103 A   104 A   103 B   104 B   105 A   105 B   106 A                  
  2.761   2.809   2.871   2.874   2.939   3.155   3.184   3.269
106 B   107 A   108 A   107 B   108 B   109 A   109 B   110 B                  
  3.271   3.401   3.426   3.719   3.742   3.961   3.977   4.278
110 A   111 A   111 B   112 A   112 B   113 A   113 B   114 A                  
  4.310   4.322   4.328   4.429   4.534   4.659   4.711
115 A   114 B   115 B   116 A   116 B   117 A   117 B                          
 
 Beta MOs, Restricted
 -- Occupied --                  
-88.919 -88.919 -10.236 -10.236 -10.225 -10.225 -10.204 -10.204
  1 B     1 A     2 A     2 B     3 B     3 A     4 A     4 B                  
-10.203 -10.203  -7.978  -7.978  -5.942  -5.942  -5.939  -5.939
  5 B     5 A     6 B     6 A     7 B     7 A     8 B     8 A                  
 -5.935  -5.935  -0.898  -0.877  -0.769  -0.743  -0.739  -0.705
  9 B     9 A    10 A    10 B    11 A    12 A    11 B    12 B                  
 -0.601  -0.570  -0.562  -0.534  -0.523  -0.477  -0.418  -0.414
 13 A    14 A    13 B    14 B    15 A    15 B    16 A    17 A                  
 -0.412  -0.405  -0.394  -0.375  -0.374  -0.351  -0.349  -0.264
 16 B    17 B    18 A    18 B    19 A    20 A    19 B    21 A                  
 -0.257  -0.256  -0.232
 20 B    21 B    22 A                                                          
 -- Virtual --                   
 -0.041  -0.025  -0.006  -0.002   0.006   0.014   0.019   0.025
 22 B    23 A    24 A    23 B    25 A    24 B    26 A    25 B                  
  0.026   0.035   0.035   0.042   0.045   0.046   0.065   0.065
 27 A    28 A    26 B    27 B    29 A    28 B    30 A    29 B                  
  0.071   0.072   0.086   0.100   0.102   0.105   0.107   0.116
 31 A    30 B    32 A    31 B    33 A    32 B    34 A    35 A                  
  0.116   0.117   0.122   0.130   0.132   0.133   0.139   0.144
 33 B    34 B    36 A    35 B    37 A    36 B    38 A    37 B                  
  0.145   0.150   0.159   0.161   0.163   0.174   0.178   0.182
 38 B    39 A    40 A    39 B    41 A    42 A    40 B    43 A                  
  0.184   0.189   0.195   0.204   0.212   0.219   0.223   0.229
 41 B    42 B    43 B    44 A    44 B    45 A    45 B    46 A                  
  0.240   0.250   0.257   0.263   0.272   0.275   0.299   0.301
 46 B    47 B    47 A    48 B    48 A    49 A    49 B    50 A                  
  0.308   0.315   0.323   0.330   0.355   0.365   0.372   0.395
 50 B    51 B    51 A    52 A    53 A    52 B    53 B    54 A                  
  0.432   0.467   0.473   0.501   0.524   0.524   0.552   0.574
 54 B    55 A    56 A    55 B    56 B    57 A    57 B    58 A                  
  0.580   0.592   0.609   0.644   0.649   0.654   0.669   0.674
 58 B    59 A    59 B    60 A    60 B    61 A    62 A    61 B                  
  0.689   0.699   0.725   0.726   0.737   0.760   0.765   0.773
 62 B    63 A    64 A    63 B    64 B    65 B    65 A    66 B                  
  0.776   0.802   0.804   0.828   0.842   0.898   0.905   0.943
 66 A    67 A    67 B    68 A    68 B    69 A    69 B    70 A                  
  0.953   0.957   0.963   0.967   0.970   0.989   0.993   1.015
 70 B    71 A    71 B    72 A    72 B    73 A    73 B    74 A                  
  1.017   1.028   1.041   1.050   1.081   1.099   1.101   1.104
 74 B    75 B    76 B    75 A    76 A    77 B    77 A    78 A                  
  1.129   1.183   1.206   1.219   1.235   1.284   1.323   1.348
 78 B    79 A    80 A    79 B    80 B    81 A    81 B    82 A                  
  1.353   1.360   1.362   1.389   1.455   1.463   1.494   1.529
 82 B    83 A    83 B    84 A    84 B    85 B    85 A    86 A                  
  1.570   1.692   1.694   1.787   1.811   1.860   1.880   1.883
 86 B    87 A    87 B    88 A    88 B    89 A    90 A    89 B                  
  1.912   1.923   1.942   1.959   2.018   2.020   2.064   2.082
 90 B    91 A    92 A    91 B    92 B    93 A    93 B    94 A                  
  2.131   2.166   2.186   2.207   2.215   2.246   2.254   2.325
 95 A    94 B    95 B    96 B    96 A    97 B    97 A    98 A                  
  2.365   2.370   2.431   2.445   2.460   2.477   2.490   2.512
 99 A    98 B    99 B   100 A   101 A   100 B   101 B   102 B                  
  2.514   2.530   2.584   2.584   2.628   2.629   2.694   2.706
102 A   103 A   104 A   103 B   104 B   105 A   105 B   106 A                  
  2.761   2.809   2.871   2.874   2.939   3.155   3.184   3.269
106 B   107 A   108 A   107 B   108 B   109 A   109 B   110 B                  
  3.271   3.401   3.426   3.719   3.742   3.961   3.977   4.278
110 A   111 A   111 B   112 A   112 B   113 A   113 B   114 A                  
  4.310   4.322   4.328   4.429   4.534   4.659   4.711
115 A   114 B   115 B   116 A   116 B   117 A   117 B                          
 --------------------------------------------------------------
 
          Ground-State Mulliken Net Atomic Charges

     Atom                 Charge (a.u.)
  ----------------------------------------
      1 S                     0.033970
      2 C                    -0.029810
      3 C                    -0.420916
      4 C                     0.346854
      5 C                    -0.374945
      6 H                     0.138412
      7 C                    -0.374945
      8 S                     0.033970
      9 C                     0.346854
     10 C                    -0.029810
     11 C                    -0.420916
     12 H                     0.117163
     13 H                     0.189272
     14 H                     0.117163
     15 H                     0.189272
     16 H                     0.138412
  ----------------------------------------
  Sum of atomic charges =    -0.000000

 -----------------------------------------------------------------
                    Cartesian Multipole Moments
 -----------------------------------------------------------------
    Charge (ESU x 10^10)
                -0.0000
    Dipole Moment (Debye)
         X      -0.0000      Y       0.0000      Z      -0.8430
       Tot       0.8430
    Quadrupole Moments (Debye-Ang)
        XX     -61.0011     XY      -1.3520     YY     -75.1369
        XZ      -0.0000     YZ       0.0000     ZZ     -71.3074
    Octopole Moments (Debye-Ang^2)
       XXX      -0.0000    XXY       0.0000    XYY       0.0000
       YYY       0.0000    XXZ       6.2419    XYZ      13.4452
       YYZ      -3.0995    XZZ       0.0000    YZZ       0.0000
       ZZZ      -3.0614
    Hexadecapole Moments (Debye-Ang^3)
      XXXX   -1888.2072   XXXY       0.7299   XXYY    -420.1354
      XYYY       4.2524   YYYY    -275.7950   XXXZ       0.0000
      XXYZ       0.0000   XYYZ       0.0000   YYYZ       0.0000
      XXZZ    -414.6881   XYZZ      -9.4356   YYZZ    -105.7173
      XZZZ       0.0000   YZZZ      -0.0000   ZZZZ    -428.6586
 -----------------------------------------------------------------
 Calculating analytic gradient of the SCF energy
 Gradient of SCF Energy
            1           2           3           4           5           6
    1  -0.0000570   0.0010563  -0.0003162   0.0002927  -0.0011845   0.0001595
    2   0.0002208   0.0001063  -0.0000090  -0.0006120   0.0006186  -0.0002326
    3  -0.0001734  -0.0001040   0.0002237   0.0005679  -0.0006863  -0.0000093
            7           8           9          10          11          12
    1   0.0011845   0.0000570  -0.0002927  -0.0010563   0.0003162  -0.0001100
    2  -0.0006186  -0.0002208   0.0006120  -0.0001063   0.0000090   0.0000972
    3  -0.0006863  -0.0001734   0.0005679  -0.0001040   0.0002237  -0.0000585
           13          14          15          16
    1   0.0000027   0.0001100  -0.0000027  -0.0001595
    2   0.0000532  -0.0000972  -0.0000532   0.0002326
    3   0.0002400  -0.0000585   0.0002400  -0.0000093
 Max gradient component =       1.185E-03
 RMS gradient           =       4.366E-04
 Gradient time:  CPU 1.88 s  wall 1.89 s
 Geometry Optimization Parameters
   NAtoms,    NIC,     NZ,  NCons,   NDum,   NFix, NCnnct, MaxDiis
       16     111       0       1       0       0       0       0

 Cartesian Hessian Update
 Hessian Updated using BFGS Update


** CONSTRAINED OPTIMIZATION IN DELOCALIZED INTERNAL COORDINATES **
   Searching for a Minimum

   Optimization Cycle:   2

                       Coordinates (Angstroms)
     ATOM                X               Y               Z
      1  S         1.7050969531    0.7282760525    0.9532281177
      2  C         3.1740931569    0.1262011427    0.2579648307
      3  C         2.9299137935   -0.6301842909   -0.8586113548
      4  C         1.5390978541   -0.7370891716   -1.1608604364
      5  C         0.7299808307   -0.0560761674   -0.2796367340
      6  H         1.1406536112   -1.3098283265   -1.9908533860
      7  C        -0.7299808307    0.0560761674   -0.2796367340
      8  S        -1.7050969531   -0.7282760525    0.9532281177
      9  C        -1.5390978541    0.7370891716   -1.1608604364
     10  C        -3.1740931569   -0.1262011427    0.2579648307
     11  C        -2.9299137935    0.6301842909   -0.8586113548
     12  H        -3.7122993062    1.1032532563   -1.4416182910
     13  H         4.1257511437    0.3626307203    0.7147822137
     14  H         3.7122993062   -1.1032532563   -1.4416182910
     15  H        -4.1257511437   -0.3626307203    0.7147822137
     16  H        -1.1406536112    1.3098283265   -1.9908533860
   Point Group: c2    Number of degrees of freedom:    22


   Energy is  -1104.837893604

              Constraints and their Current Values
                                        Value     Constraint
   Dihedral:        4   5   7   9      -70.000      -70.000
 Hessian Updated using BFGS Update

 21 Hessian modes will be used to form the next step
  Hessian Eigenvalues:
     0.041298    0.045000    0.045001    0.045002    0.045010    0.045838
     0.154997    0.159989    0.160034    0.215422    0.226403    0.245151
     0.299039    0.314721    0.357246    0.358531    0.362248    0.388206
     0.436355    0.468345    0.528863

 Minimum Search - Taking Simple RFO Step
 Searching for Lamda that Minimizes Along All modes
 Value Taken    Lamda =  -0.00005320
 Step Taken.  Stepsize is  0.023896

                             Maximum     Tolerance    Cnvgd?
         Gradient           0.001973      0.000300      NO
         Displacement       0.015851      0.001200      NO
         Energy change     -0.000350      0.000001      NO


 New Cartesian Coordinates Obtained by Inverse Iteration

 Displacement from previous Coordinates is:  0.058479
 ----------------------------------------------------------------
             Standard Nuclear Orientation (Angstroms)
    I     Atom           X                Y                Z
 ----------------------------------------------------------------
    1      S       1.7073250790     0.7248858776     0.9610241610
    2      C       3.1726081818     0.1249543832     0.2571776602
    3      C       2.9267421132    -0.6274222605    -0.8620237235
    4      C       1.5349819826    -0.7340961620    -1.1589649206
    5      C       0.7306152081    -0.0535943352    -0.2737534561
    6      H       1.1311844733    -1.3022806095    -1.9895491846
    7      C      -0.7306152081     0.0535943352    -0.2737534561
    8      S      -1.7073250790    -0.7248858776     0.9610241610
    9      C      -1.5349819826     0.7340961620    -1.1589649206
   10      C      -3.1726081818    -0.1249543832     0.2571776602
   11      C      -2.9267421132     0.6274222605    -0.8620237235
   12      H      -3.7076486371     1.0973562275    -1.4494180612
   13      H       4.1265872419     0.3599632613     0.7099024847
   14      H       3.7076486371    -1.0973562275    -1.4494180612
   15      H      -4.1265872419    -0.3599632613     0.7099024847
   16      H      -1.1311844733     1.3022806095    -1.9895491846
 ----------------------------------------------------------------
 Molecular Point Group                 C2    NOp =  2
 Largest Abelian Subgroup              C2    NOp =  2
 Nuclear Repulsion Energy =   628.7096266212 hartrees
 There are       43 alpha and       43 beta electrons
 Applying Cartesian multipole field
    Component          Value
    ---------          -----
     (2,0,0)        1.00000E-11
     (0,2,0)        2.00000E-11
     (0,0,2)       -3.00000E-11
 Nucleus-field energy     =     0.0000000099 hartrees
 Requested basis set is 6-31++G(d,p)
 There are 76 shells and 234 basis functions
 A cutoff of  1.0D-11 yielded   2491 shell pairs
 There are     24591 function pairs
 Smallest overlap matrix eigenvalue = 1.20E-06

 Q-Chem warning in module /project/projectdirs/jcesr/qchem/qc44/cnl_qc441/compile/cori/qc_src/stvman/mkSTV.C, line 257:

 Overlap eigenvalue is smaller than square root of threshold

 Guess MOs from SCF MO coefficient file
 Reading MOs from coefficient file
 Reading MOs from coefficient file
 A restricted hybrid HF-DFT SCF calculation will be
 performed using Pulay DIIS extrapolation
 Exchange:     0.2000 Hartree-Fock + 0.0800 Slater + 0.7200 B88
 Correlation:  0.1900 VWN1RPA + 0.8100 LYP
 Using SG-1 standard quadrature grid
 SCF converges when DIIS error is below 1.0E-08
 Geometry optimization detected.  Setting ReadMinima to 0
 Setting SaveMinima to 0
 ---------------------------------------
  Cycle       Energy         DIIS Error
 ---------------------------------------
    1   -1104.8383034751      2.59E-04
    2   -1104.8378999002      5.82E-05
    3   -1104.8377963715      1.31E-04
    4   -1104.8379266029      7.69E-06
    5   -1104.8379269791      2.69E-06
    6   -1104.8379270221      1.26E-06
    7   -1104.8379270316      4.42E-07
    8   -1104.8379270342      1.09E-07
    9   -1104.8379270359      1.74E-08
   10   -1104.8379270352      7.32E-09 Convergence criterion met
 ---------------------------------------
 SCF time:  CPU 5.28 s  wall 4.63 s
 SCF   energy in the final basis set = -1104.8379270352
 Total energy in the final basis set = -1104.8379270352
 
 --------------------------------------------------------------
             Orbital Energies (a.u.) and Symmetries
 --------------------------------------------------------------
 
 Alpha MOs, Restricted
 -- Occupied --                  
-88.919 -88.919 -10.236 -10.236 -10.225 -10.225 -10.204 -10.204
  1 B     1 A     2 A     2 B     3 B     3 A     4 A     4 B                  
-10.203 -10.203  -7.978  -7.978  -5.942  -5.942  -5.939  -5.939
  5 B     5 A     6 B     6 A     7 B     7 A     8 B     8 A                  
 -5.936  -5.936  -0.898  -0.877  -0.769  -0.744  -0.740  -0.705
  9 B     9 A    10 A    10 B    11 A    12 A    11 B    12 B                  
 -0.601  -0.570  -0.562  -0.534  -0.523  -0.477  -0.418  -0.414
 13 A    14 A    13 B    14 B    15 A    15 B    16 A    17 A                  
 -0.412  -0.405  -0.394  -0.375  -0.374  -0.352  -0.350  -0.264
 16 B    17 B    18 A    18 B    19 A    20 A    19 B    21 A                  
 -0.258  -0.256  -0.231
 20 B    21 B    22 A                                                          
 -- Virtual --                   
 -0.041  -0.025  -0.006  -0.002   0.006   0.014   0.019   0.025
 22 B    23 A    24 A    23 B    25 A    24 B    26 A    25 B                  
  0.026   0.035   0.035   0.042   0.045   0.046   0.065   0.065
 27 A    28 A    26 B    27 B    29 A    28 B    30 A    29 B                  
  0.071   0.072   0.086   0.100   0.102   0.105   0.107   0.116
 31 A    30 B    32 A    31 B    33 A    32 B    34 A    35 A                  
  0.116   0.117   0.122   0.130   0.132   0.133   0.139   0.144
 33 B    34 B    36 A    35 B    37 A    36 B    38 A    37 B                  
  0.145   0.150   0.159   0.161   0.163   0.174   0.178   0.182
 38 B    39 A    40 A    39 B    41 A    42 A    40 B    43 A                  
  0.184   0.189   0.195   0.203   0.212   0.219   0.224   0.229
 41 B    42 B    43 B    44 A    44 B    45 A    45 B    46 A                  
  0.240   0.250   0.258   0.263   0.272   0.275   0.299   0.301
 46 B    47 B    47 A    48 B    48 A    49 A    49 B    50 A                  
  0.308   0.315   0.324   0.331   0.355   0.365   0.372   0.395
 50 B    51 B    51 A    52 A    53 A    52 B    53 B    54 A                  
  0.433   0.467   0.473   0.500   0.524   0.525   0.552   0.574
 54 B    55 A    56 A    55 B    56 B    57 A    57 B    58 A                  
  0.579   0.592   0.608   0.644   0.648   0.654   0.669   0.674
 58 B    59 A    59 B    60 A    60 B    61 A    62 A    61 B                  
  0.689   0.699   0.725   0.727   0.737   0.759   0.764   0.774
 62 B    63 A    64 A    63 B    64 B    65 B    65 A    66 B                  
  0.776   0.802   0.804   0.827   0.842   0.898   0.905   0.944
 66 A    67 A    67 B    68 A    68 B    69 A    69 B    70 A                  
  0.953   0.957   0.963   0.967   0.971   0.990   0.992   1.015
 70 B    71 A    71 B    72 A    72 B    73 A    73 B    74 A                  
  1.017   1.028   1.040   1.051   1.081   1.099   1.101   1.105
 74 B    75 B    76 B    75 A    76 A    77 B    77 A    78 A                  
  1.130   1.184   1.207   1.220   1.236   1.285   1.324   1.349
 78 B    79 A    80 A    79 B    80 B    81 A    81 B    82 A                  
  1.353   1.359   1.362   1.391   1.452   1.461   1.496   1.528
 82 B    83 A    83 B    84 A    84 B    85 B    85 A    86 A                  
  1.571   1.692   1.693   1.786   1.810   1.863   1.880   1.882
 86 B    87 A    87 B    88 A    88 B    89 A    90 A    89 B                  
  1.913   1.924   1.942   1.961   2.018   2.020   2.064   2.083
 90 B    91 A    92 A    91 B    92 B    93 A    93 B    94 A                  
  2.132   2.166   2.186   2.209   2.216   2.247   2.254   2.324
 95 A    94 B    95 B    96 B    96 A    97 B    97 A    98 A                  
  2.366   2.370   2.432   2.445   2.460   2.476   2.490   2.512
 99 A    98 B    99 B   100 A   101 A   100 B   101 B   102 B                  
  2.514   2.531   2.584   2.584   2.628   2.629   2.695   2.706
102 A   103 A   104 A   103 B   105 A   104 B   105 B   106 A                  
  2.762   2.810   2.872   2.873   2.937   3.156   3.184   3.269
106 B   107 A   108 A   107 B   108 B   109 A   109 B   110 B                  
  3.271   3.401   3.426   3.719   3.742   3.961   3.977   4.279
110 A   111 A   111 B   112 A   112 B   113 A   113 B   114 A                  
  4.311   4.322   4.328   4.429   4.534   4.659   4.711
115 A   114 B   115 B   116 A   116 B   117 A   117 B                          
 
 Beta MOs, Restricted
 -- Occupied --                  
-88.919 -88.919 -10.236 -10.236 -10.225 -10.225 -10.204 -10.204
  1 B     1 A     2 A     2 B     3 B     3 A     4 A     4 B                  
-10.203 -10.203  -7.978  -7.978  -5.942  -5.942  -5.939  -5.939
  5 B     5 A     6 B     6 A     7 B     7 A     8 B     8 A                  
 -5.936  -5.936  -0.898  -0.877  -0.769  -0.744  -0.740  -0.705
  9 B     9 A    10 A    10 B    11 A    12 A    11 B    12 B                  
 -0.601  -0.570  -0.562  -0.534  -0.523  -0.477  -0.418  -0.414
 13 A    14 A    13 B    14 B    15 A    15 B    16 A    17 A                  
 -0.412  -0.405  -0.394  -0.375  -0.374  -0.352  -0.350  -0.264
 16 B    17 B    18 A    18 B    19 A    20 A    19 B    21 A                  
 -0.258  -0.256  -0.231
 20 B    21 B    22 A                                                          
 -- Virtual --                   
 -0.041  -0.025  -0.006  -0.002   0.006   0.014   0.019   0.025
 22 B    23 A    24 A    23 B    25 A    24 B    26 A    25 B                  
  0.026   0.035   0.035   0.042   0.045   0.046   0.065   0.065
 27 A    28 A    26 B    27 B    29 A    28 B    30 A    29 B                  
  0.071   0.072   0.086   0.100   0.102   0.105   0.107   0.116
 31 A    30 B    32 A    31 B    33 A    32 B    34 A    35 A                  
  0.116   0.117   0.122   0.130   0.132   0.133   0.139   0.144
 33 B    34 B    36 A    35 B    37 A    36 B    38 A    37 B                  
  0.145   0.150   0.159   0.161   0.163   0.174   0.178   0.182
 38 B    39 A    40 A    39 B    41 A    42 A    40 B    43 A                  
  0.184   0.189   0.195   0.203   0.212   0.219   0.224   0.229
 41 B    42 B    43 B    44 A    44 B    45 A    45 B    46 A                  
  0.240   0.250   0.258   0.263   0.272   0.275   0.299   0.301
 46 B    47 B    47 A    48 B    48 A    49 A    49 B    50 A                  
  0.308   0.315   0.324   0.331   0.355   0.365   0.372   0.395
 50 B    51 B    51 A    52 A    53 A    52 B    53 B    54 A                  
  0.433   0.467   0.473   0.500   0.524   0.525   0.552   0.574
 54 B    55 A    56 A    55 B    56 B    57 A    57 B    58 A                  
  0.579   0.592   0.608   0.644   0.648   0.654   0.669   0.674
 58 B    59 A    59 B    60 A    60 B    61 A    62 A    61 B                  
  0.689   0.699   0.725   0.727   0.737   0.759   0.764   0.774
 62 B    63 A    64 A    63 B    64 B    65 B    65 A    66 B                  
  0.776   0.802   0.804   0.827   0.842   0.898   0.905   0.944
 66 A    67 A    67 B    68 A    68 B    69 A    69 B    70 A                  
  0.953   0.957   0.963   0.967   0.971   0.990   0.992   1.015
 70 B    71 A    71 B    72 A    72 B    73 A    73 B    74 A                  
  1.017   1.028   1.040   1.051   1.081   1.099   1.101   1.105
 74 B    75 B    76 B    75 A    76 A    77 B    77 A    78 A                  
  1.130   1.184   1.207   1.220   1.236   1.285   1.324   1.349
 78 B    79 A    80 A    79 B    80 B    81 A    81 B    82 A                  
  1.353   1.359   1.362   1.391   1.452   1.461   1.496   1.528
 82 B    83 A    83 B    84 A    84 B    85 B    85 A    86 A                  
  1.571   1.692   1.693   1.786   1.810   1.863   1.880   1.882
 86 B    87 A    87 B    88 A    88 B    89 A    90 A    89 B                  
  1.913   1.924   1.942   1.961   2.018   2.020   2.064   2.083
 90 B    91 A    92 A    91 B    92 B    93 A    93 B    94 A                  
  2.132   2.166   2.186   2.209   2.216   2.247   2.254   2.324
 95 A    94 B    95 B    96 B    96 A    97 B    97 A    98 A                  
  2.366   2.370   2.432   2.445   2.460   2.476   2.490   2.512
 99 A    98 B    99 B   100 A   101 A   100 B   101 B   102 B                  
  2.514   2.531   2.584   2.584   2.628   2.629   2.695   2.706
102 A   103 A   104 A   103 B   105 A   104 B   105 B   106 A                  
  2.762   2.810   2.872   2.873   2.937   3.156   3.184   3.269
106 B   107 A   108 A   107 B   108 B   109 A   109 B   110 B                  
  3.271   3.401   3.426   3.719   3.742   3.961   3.977   4.279
110 A   111 A   111 B   112 A   112 B   113 A   113 B   114 A                  
  4.311   4.322   4.328   4.429   4.534   4.659   4.711
115 A   114 B   115 B   116 A   116 B   117 A   117 B                          
 --------------------------------------------------------------
 
          Ground-State Mulliken Net Atomic Charges

     Atom                 Charge (a.u.)
  ----------------------------------------
      1 S                     0.037144
      2 C                    -0.034238
      3 C                    -0.419348
      4 C                     0.341378
      5 C                    -0.369778
      6 H                     0.138823
      7 C                    -0.369778
      8 S                     0.037144
      9 C                     0.341378
     10 C                    -0.034238
     11 C                    -0.419348
     12 H                     0.117145
     13 H                     0.188874
     14 H                     0.117145
     15 H                     0.188874
     16 H                     0.138823
  ----------------------------------------
  Sum of atomic charges =     0.000000

 -----------------------------------------------------------------
                    Cartesian Multipole Moments
 -----------------------------------------------------------------
    Charge (ESU x 10^10)
                 0.0000
    Dipole Moment (Debye)
         X      -0.0000      Y       0.0000      Z      -0.8459
       Tot       0.8459
    Quadrupole Moments (Debye-Ang)
        XX     -61.0630     XY      -1.3219     YY     -75.1689
        XZ       0.0000     YZ       0.0000     ZZ     -71.2580
    Octopole Moments (Debye-Ang^2)
       XXX      -0.0000    XXY       0.0000    XYY      -0.0000
       YYY       0.0000    XXZ       5.8270    XYZ      13.3867
       YYZ      -3.2656    XZZ       0.0000    YZZ      -0.0000
       ZZZ      -3.7756
    Hexadecapole Moments (Debye-Ang^3)
      XXXX   -1887.4731   XXXY       0.7101   XXYY    -420.0037
      XYYY       4.0681   YYYY    -274.2334   XXXZ       0.0000
      XXYZ       0.0000   XYYZ       0.0000   YYYZ       0.0000
      XXZZ    -414.5386   XYZZ      -9.5304   YYZZ    -105.9355
      XZZZ       0.0000   YZZZ       0.0000   ZZZZ    -430.5986
 -----------------------------------------------------------------
 Calculating analytic gradient of the SCF energy
 Gradient of SCF Energy
            1           2           3           4           5           6
    1   0.0000223   0.0000014  -0.0001219   0.0000278   0.0004042   0.0000102
    2   0.0004314   0.0002442  -0.0001544  -0.0009822   0.0013750  -0.0001555
    3   0.0003886   0.0000420  -0.0002036   0.0008450  -0.0010099  -0.0000586
            7           8           9          10          11          12
    1  -0.0004042  -0.0000223  -0.0000278  -0.0000014   0.0001219  -0.0000512
    2  -0.0013750  -0.0004314   0.0009822  -0.0002442   0.0001544   0.0001105
    3  -0.0010099   0.0003886   0.0008450   0.0000420  -0.0002036  -0.0001212
           13          14          15          16
    1   0.0000352   0.0000512  -0.0000352  -0.0000102
    2  -0.0000020  -0.0001105   0.0000020   0.0001555
    3   0.0001177  -0.0001212   0.0001177  -0.0000586
 Max gradient component =       1.375E-03
 RMS gradient           =       4.701E-04
 Gradient time:  CPU 1.88 s  wall 1.88 s
 Geometry Optimization Parameters
   NAtoms,    NIC,     NZ,  NCons,   NDum,   NFix, NCnnct, MaxDiis
       16     111       0       1       0       0       0       0

 Cartesian Hessian Update
 Hessian Updated using BFGS Update


** CONSTRAINED OPTIMIZATION IN DELOCALIZED INTERNAL COORDINATES **
   Searching for a Minimum

   Optimization Cycle:   3

                       Coordinates (Angstroms)
     ATOM                X               Y               Z
      1  S         1.7073250790    0.7248858776    0.9610241610
      2  C         3.1726081818    0.1249543832    0.2571776602
      3  C         2.9267421132   -0.6274222605   -0.8620237235
      4  C         1.5349819826   -0.7340961620   -1.1589649206
      5  C         0.7306152081   -0.0535943352   -0.2737534561
      6  H         1.1311844733   -1.3022806095   -1.9895491846
      7  C        -0.7306152081    0.0535943352   -0.2737534561
      8  S        -1.7073250790   -0.7248858776    0.9610241610
      9  C        -1.5349819826    0.7340961620   -1.1589649206
     10  C        -3.1726081818   -0.1249543832    0.2571776602
     11  C        -2.9267421132    0.6274222605   -0.8620237235
     12  H        -3.7076486371    1.0973562275   -1.4494180612
     13  H         4.1265872419    0.3599632613    0.7099024847
     14  H         3.7076486371   -1.0973562275   -1.4494180612
     15  H        -4.1265872419   -0.3599632613    0.7099024847
     16  H        -1.1311844733    1.3022806095   -1.9895491846
   Point Group: c2    Number of degrees of freedom:    22


   Energy is  -1104.837927035

              Constraints and their Current Values
                                        Value     Constraint
   Dihedral:        4   5   7   9      -70.000      -70.000
 Hessian Updated using BFGS Update

 21 Hessian modes will be used to form the next step
  Hessian Eigenvalues:
     0.028650    0.045000    0.045002    0.045004    0.045200    0.045991
     0.147986    0.160011    0.160609    0.201141    0.223396    0.284865
     0.300778    0.315637    0.357328    0.358310    0.361773    0.391827
     0.437855    0.486591    0.517328

 Minimum Search - Taking Simple RFO Step
 Searching for Lamda that Minimizes Along All modes
 Value Taken    Lamda =  -0.00001811
 Step Taken.  Stepsize is  0.021566

                             Maximum     Tolerance    Cnvgd?
         Gradient           0.000554      0.000300      NO
         Displacement       0.018004      0.001200      NO
         Energy change     -0.000033      0.000001      NO


 New Cartesian Coordinates Obtained by Inverse Iteration

 Displacement from previous Coordinates is:  0.040913
 ----------------------------------------------------------------
             Standard Nuclear Orientation (Angstroms)
    I     Atom           X                Y                Z
 ----------------------------------------------------------------
    1      S       1.7087094841     0.7206456094     0.9652980315
    2      C       3.1727682896     0.1224107927     0.2582069236
    3      C       2.9257591536    -0.6250128284    -0.8636009593
    4      C       1.5333870447    -0.7302087611    -1.1590373958
    5      C       0.7307247026    -0.0510867283    -0.2714595589
    6      H       1.1271396082    -1.2940646739    -1.9911387818
    7      C      -0.7307247026     0.0510867283    -0.2714595589
    8      S      -1.7087094841    -0.7206456094     0.9652980315
    9      C      -1.5333870447     0.7302087611    -1.1590373958
   10      C      -3.1727682896    -0.1224107927     0.2582069236
   11      C      -2.9257591536     0.6250128284    -0.8636009593
   12      H      -3.7062077431     1.0922237074    -1.4533082074
   13      H       4.1277917328     0.3556551132     0.7094349078
   14      H       3.7062077431    -1.0922237074    -1.4533082074
   15      H      -4.1277917328    -0.3556551132     0.7094349078
   16      H      -1.1271396082     1.2940646739    -1.9911387818
 ----------------------------------------------------------------
 Molecular Point Group                 C2    NOp =  2
 Largest Abelian Subgroup              C2    NOp =  2
 Nuclear Repulsion Energy =   628.7993621750 hartrees
 There are       43 alpha and       43 beta electrons
 Applying Cartesian multipole field
    Component          Value
    ---------          -----
     (2,0,0)        1.00000E-11
     (0,2,0)        2.00000E-11
     (0,0,2)       -3.00000E-11
 Nucleus-field energy     =     0.0000000098 hartrees
 Requested basis set is 6-31++G(d,p)
 There are 76 shells and 234 basis functions
 A cutoff of  1.0D-11 yielded   2491 shell pairs
 There are     24591 function pairs
 Smallest overlap matrix eigenvalue = 1.21E-06

 Q-Chem warning in module /project/projectdirs/jcesr/qchem/qc44/cnl_qc441/compile/cori/qc_src/stvman/mkSTV.C, line 257:

 Overlap eigenvalue is smaller than square root of threshold

 Guess MOs from SCF MO coefficient file
 Reading MOs from coefficient file
 Reading MOs from coefficient file
 A restricted hybrid HF-DFT SCF calculation will be
 performed using Pulay DIIS extrapolation
 Exchange:     0.2000 Hartree-Fock + 0.0800 Slater + 0.7200 B88
 Correlation:  0.1900 VWN1RPA + 0.8100 LYP
 Using SG-1 standard quadrature grid
 SCF converges when DIIS error is below 1.0E-08
 Geometry optimization detected.  Setting ReadMinima to 0
 Setting SaveMinima to 0
 ---------------------------------------
  Cycle       Energy         DIIS Error
 ---------------------------------------
    1   -1104.8383339776      2.05E-04
    2   -1104.8379319752      2.65E-05
    3   -1104.8379080387      6.28E-05
    4   -1104.8379381182      3.55E-06
    5   -1104.8379382004      1.73E-06
    6   -1104.8379382186      5.93E-07
    7   -1104.8379382206      1.87E-07
    8   -1104.8379382205      6.70E-08
    9   -1104.8379382197      1.64E-08
   10   -1104.8379382199      6.40E-09 Convergence criterion met
 ---------------------------------------
 SCF time:  CPU 5.23 s  wall 4.58 s
 SCF   energy in the final basis set = -1104.8379382199
 Total energy in the final basis set = -1104.8379382199
 
 --------------------------------------------------------------
             Orbital Energies (a.u.) and Symmetries
 --------------------------------------------------------------
 
 Alpha MOs, Restricted
 -- Occupied --                  
-88.919 -88.919 -10.236 -10.236 -10.225 -10.225 -10.204 -10.204
  1 B     1 A     2 A     2 B     3 B     3 A     4 A     4 B                  
-10.203 -10.203  -7.978  -7.978  -5.942  -5.942  -5.939  -5.939
  5 B     5 A     6 B     6 A     7 B     7 A     8 B     8 A                  
 -5.936  -5.936  -0.898  -0.877  -0.769  -0.744  -0.740  -0.705
  9 B     9 A    10 A    10 B    11 A    12 A    11 B    12 B                  
 -0.601  -0.570  -0.562  -0.534  -0.523  -0.477  -0.418  -0.414
 13 A    14 A    13 B    14 B    15 A    15 B    16 A    17 A                  
 -0.412  -0.405  -0.394  -0.375  -0.374  -0.352  -0.350  -0.264
 16 B    17 B    18 A    18 B    19 A    20 A    19 B    21 A                  
 -0.258  -0.256  -0.231
 20 B    21 B    22 A                                                          
 -- Virtual --                   
 -0.041  -0.025  -0.006  -0.002   0.006   0.014   0.019   0.025
 22 B    23 A    24 A    23 B    25 A    24 B    26 A    25 B                  
  0.026   0.035   0.035   0.042   0.045   0.046   0.065   0.065
 27 A    28 A    26 B    27 B    29 A    28 B    30 A    29 B                  
  0.071   0.072   0.086   0.100   0.102   0.105   0.107   0.116
 31 A    30 B    32 A    31 B    33 A    32 B    34 A    35 A                  
  0.117   0.117   0.122   0.130   0.132   0.133   0.139   0.144
 33 B    34 B    36 A    35 B    37 A    36 B    38 A    37 B                  
  0.145   0.149   0.159   0.162   0.163   0.174   0.178   0.182
 38 B    39 A    40 A    39 B    41 A    42 A    40 B    43 A                  
  0.184   0.189   0.195   0.203   0.212   0.219   0.224   0.229
 41 B    42 B    43 B    44 A    44 B    45 A    45 B    46 A                  
  0.239   0.250   0.258   0.263   0.273   0.275   0.298   0.302
 46 B    47 B    47 A    48 B    48 A    49 A    49 B    50 A                  
  0.309   0.314   0.324   0.331   0.355   0.365   0.372   0.395
 50 B    51 B    51 A    52 A    53 A    52 B    53 B    54 A                  
  0.433   0.467   0.474   0.500   0.525   0.525   0.553   0.574
 54 B    55 A    56 A    55 B    57 A    56 B    57 B    58 A                  
  0.579   0.593   0.608   0.643   0.649   0.654   0.669   0.674
 58 B    59 A    59 B    60 A    60 B    61 A    62 A    61 B                  
  0.689   0.699   0.725   0.727   0.737   0.758   0.764   0.774
 62 B    63 A    64 A    63 B    64 B    65 B    65 A    66 B                  
  0.776   0.802   0.804   0.827   0.843   0.898   0.905   0.944
 66 A    67 A    67 B    68 A    68 B    69 A    69 B    70 A                  
  0.954   0.958   0.962   0.967   0.971   0.990   0.992   1.015
 70 B    71 A    71 B    72 A    72 B    73 A    73 B    74 A                  
  1.017   1.028   1.040   1.051   1.081   1.099   1.101   1.105
 74 B    75 B    76 B    75 A    76 A    77 B    77 A    78 A                  
  1.130   1.184   1.207   1.220   1.237   1.285   1.325   1.349
 78 B    79 A    80 A    79 B    80 B    81 A    81 B    82 A                  
  1.353   1.359   1.361   1.391   1.450   1.461   1.496   1.527
 82 B    83 A    83 B    84 A    84 B    85 B    85 A    86 A                  
  1.572   1.692   1.693   1.786   1.809   1.864   1.880   1.882
 86 B    87 A    87 B    88 A    88 B    89 A    90 A    89 B                  
  1.913   1.925   1.943   1.961   2.018   2.020   2.064   2.083
 90 B    91 A    92 A    91 B    92 B    93 A    93 B    94 A                  
  2.132   2.166   2.186   2.211   2.216   2.248   2.254   2.324
 95 A    94 B    95 B    96 B    96 A    97 B    97 A    98 A                  
  2.366   2.371   2.433   2.445   2.460   2.476   2.490   2.512
 99 A    98 B    99 B   100 A   101 A   100 B   101 B   102 B                  
  2.514   2.531   2.584   2.584   2.629   2.629   2.695   2.706
102 A   103 A   104 A   103 B   105 A   104 B   105 B   106 A                  
  2.762   2.810   2.873   2.873   2.937   3.156   3.184   3.269
106 B   107 A   108 A   107 B   108 B   109 A   109 B   110 B                  
  3.271   3.402   3.426   3.720   3.743   3.961   3.977   4.280
110 A   111 A   111 B   112 A   112 B   113 A   113 B   114 A                  
  4.311   4.322   4.328   4.429   4.534   4.659   4.711
115 A   114 B   115 B   116 A   116 B   117 A   117 B                          
 
 Beta MOs, Restricted
 -- Occupied --                  
-88.919 -88.919 -10.236 -10.236 -10.225 -10.225 -10.204 -10.204
  1 B     1 A     2 A     2 B     3 B     3 A     4 A     4 B                  
-10.203 -10.203  -7.978  -7.978  -5.942  -5.942  -5.939  -5.939
  5 B     5 A     6 B     6 A     7 B     7 A     8 B     8 A                  
 -5.936  -5.936  -0.898  -0.877  -0.769  -0.744  -0.740  -0.705
  9 B     9 A    10 A    10 B    11 A    12 A    11 B    12 B                  
 -0.601  -0.570  -0.562  -0.534  -0.523  -0.477  -0.418  -0.414
 13 A    14 A    13 B    14 B    15 A    15 B    16 A    17 A                  
 -0.412  -0.405  -0.394  -0.375  -0.374  -0.352  -0.350  -0.264
 16 B    17 B    18 A    18 B    19 A    20 A    19 B    21 A                  
 -0.258  -0.256  -0.231
 20 B    21 B    22 A                                                          
 -- Virtual --                   
 -0.041  -0.025  -0.006  -0.002   0.006   0.014   0.019   0.025
 22 B    23 A    24 A    23 B    25 A    24 B    26 A    25 B                  
  0.026   0.035   0.035   0.042   0.045   0.046   0.065   0.065
 27 A    28 A    26 B    27 B    29 A    28 B    30 A    29 B                  
  0.071   0.072   0.086   0.100   0.102   0.105   0.107   0.116
 31 A    30 B    32 A    31 B    33 A    32 B    34 A    35 A                  
  0.117   0.117   0.122   0.130   0.132   0.133   0.139   0.144
 33 B    34 B    36 A    35 B    37 A    36 B    38 A    37 B                  
  0.145   0.149   0.159   0.162   0.163   0.174   0.178   0.182
 38 B    39 A    40 A    39 B    41 A    42 A    40 B    43 A                  
  0.184   0.189   0.195   0.203   0.212   0.219   0.224   0.229
 41 B    42 B    43 B    44 A    44 B    45 A    45 B    46 A                  
  0.239   0.250   0.258   0.263   0.273   0.275   0.298   0.302
 46 B    47 B    47 A    48 B    48 A    49 A    49 B    50 A                  
  0.309   0.314   0.324   0.331   0.355   0.365   0.372   0.395
 50 B    51 B    51 A    52 A    53 A    52 B    53 B    54 A                  
  0.433   0.467   0.474   0.500   0.525   0.525   0.553   0.574
 54 B    55 A    56 A    55 B    57 A    56 B    57 B    58 A                  
  0.579   0.593   0.608   0.643   0.649   0.654   0.669   0.674
 58 B    59 A    59 B    60 A    60 B    61 A    62 A    61 B                  
  0.689   0.699   0.725   0.727   0.737   0.758   0.764   0.774
 62 B    63 A    64 A    63 B    64 B    65 B    65 A    66 B                  
  0.776   0.802   0.804   0.827   0.843   0.898   0.905   0.944
 66 A    67 A    67 B    68 A    68 B    69 A    69 B    70 A                  
  0.954   0.958   0.962   0.967   0.971   0.990   0.992   1.015
 70 B    71 A    71 B    72 A    72 B    73 A    73 B    74 A                  
  1.017   1.028   1.040   1.051   1.081   1.099   1.101   1.105
 74 B    75 B    76 B    75 A    76 A    77 B    77 A    78 A                  
  1.130   1.184   1.207   1.220   1.237   1.285   1.325   1.349
 78 B    79 A    80 A    79 B    80 B    81 A    81 B    82 A                  
  1.353   1.359   1.361   1.391   1.450   1.461   1.496   1.527
 82 B    83 A    83 B    84 A    84 B    85 B    85 A    86 A                  
  1.572   1.692   1.693   1.786   1.809   1.864   1.880   1.882
 86 B    87 A    87 B    88 A    88 B    89 A    90 A    89 B                  
  1.913   1.925   1.943   1.961   2.018   2.020   2.064   2.083
 90 B    91 A    92 A    91 B    92 B    93 A    93 B    94 A                  
  2.132   2.166   2.186   2.211   2.216   2.248   2.254   2.324
 95 A    94 B    95 B    96 B    96 A    97 B    97 A    98 A                  
  2.366   2.371   2.433   2.445   2.460   2.476   2.490   2.512
 99 A    98 B    99 B   100 A   101 A   100 B   101 B   102 B                  
  2.514   2.531   2.584   2.584   2.629   2.629   2.695   2.706
102 A   103 A   104 A   103 B   105 A   104 B   105 B   106 A                  
  2.762   2.810   2.873   2.873   2.937   3.156   3.184   3.269
106 B   107 A   108 A   107 B   108 B   109 A   109 B   110 B                  
  3.271   3.402   3.426   3.720   3.743   3.961   3.977   4.280
110 A   111 A   111 B   112 A   112 B   113 A   113 B   114 A                  
  4.311   4.322   4.328   4.429   4.534   4.659   4.711
115 A   114 B   115 B   116 A   116 B   117 A   117 B                          
 --------------------------------------------------------------
 
          Ground-State Mulliken Net Atomic Charges

     Atom                 Charge (a.u.)
  ----------------------------------------
      1 S                     0.037561
      2 C                    -0.035390
      3 C                    -0.419756
      4 C                     0.337777
      5 C                    -0.365133
      6 H                     0.139006
      7 C                    -0.365133
      8 S                     0.037562
      9 C                     0.337777
     10 C                    -0.035390
     11 C                    -0.419756
     12 H                     0.117116
     13 H                     0.188819
     14 H                     0.117116
[...]
  3.271   3.402   3.426   3.720   3.743   3.960   3.978   4.280
110 A   111 A   111 B   112 A   112 B   113 A   113 B   114 A                  
  4.311   4.322   4.329   4.429   4.534   4.659   4.711
115 A   114 B   115 B   116 A   116 B   117 A   117 B                          
 --------------------------------------------------------------
 
          Ground-State Mulliken Net Atomic Charges

     Atom                 Charge (a.u.)
  ----------------------------------------
      1 S                     0.034450
      2 C                    -0.035200
      3 C                    -0.422603
      4 C                     0.339393
      5 C                    -0.361286
      6 H                     0.139131
      7 C                    -0.361286
      8 S                     0.034450
      9 C                     0.339393
     10 C                    -0.035200
     11 C                    -0.422603
     12 H                     0.117064
     13 H                     0.189052
     14 H                     0.117064
     15 H                     0.189052
     16 H                     0.139131
  ----------------------------------------
  Sum of atomic charges =    -0.000000

 -----------------------------------------------------------------
                    Cartesian Multipole Moments
 -----------------------------------------------------------------
    Charge (ESU x 10^10)
                -0.0000
    Dipole Moment (Debye)
         X      -0.0000      Y      -0.0000      Z      -0.8414
       Tot       0.8414
    Quadrupole Moments (Debye-Ang)
        XX     -61.0534     XY      -1.3370     YY     -75.2666
        XZ      -0.0000     YZ       0.0000     ZZ     -71.1637
    Octopole Moments (Debye-Ang^2)
       XXX      -0.0000    XXY      -0.0000    XYY      -0.0000
       YYY      -0.0000    XXZ       5.7877    XYZ      13.2681
       YYZ      -3.3255    XZZ      -0.0000    YZZ      -0.0000
       ZZZ      -4.3542
    Hexadecapole Moments (Debye-Ang^3)
      XXXX   -1885.7696   XXXY       1.4362   XXYY    -419.7443
      XYYY       5.9342   YYYY    -269.6870   XXXZ      -0.0000
      XXYZ      -0.0000   XYYZ      -0.0000   YYYZ       0.0000
      XXZZ    -414.0078   XYZZ      -8.9315   YYZZ    -106.1992
      XZZZ      -0.0000   YZZZ       0.0000   ZZZZ    -434.1172
 -----------------------------------------------------------------
 Calculating analytic gradient of the SCF energy
 Gradient of SCF Energy
            1           2           3           4           5           6
    1  -0.0000208   0.0000258  -0.0000470  -0.0000556   0.0001644   0.0000045
    2  -0.0000322  -0.0000023   0.0000010  -0.0014739   0.0031752   0.0000118
    3  -0.0000623   0.0000050  -0.0000062   0.0009614  -0.0009017  -0.0000024
            7           8           9          10          11          12
    1  -0.0001644   0.0000208   0.0000556  -0.0000258   0.0000470  -0.0000043
    2  -0.0031752   0.0000322   0.0014739   0.0000023  -0.0000010   0.0000005
    3  -0.0009017  -0.0000623   0.0009614   0.0000050  -0.0000062   0.0000074
           13          14          15          16
    1  -0.0000078   0.0000043   0.0000078  -0.0000045
    2   0.0000028  -0.0000005  -0.0000028  -0.0000118
    3  -0.0000010   0.0000074  -0.0000010  -0.0000024
 Max gradient component =       3.175E-03
 RMS gradient           =       7.646E-04
 Gradient time:  CPU 1.92 s  wall 1.88 s
 Geometry Optimization Parameters
   NAtoms,    NIC,     NZ,  NCons,   NDum,   NFix, NCnnct, MaxDiis
       16     111       0       1       0       0       0       0

 Cartesian Hessian Update
 Hessian Updated using BFGS Update


** CONSTRAINED OPTIMIZATION IN DELOCALIZED INTERNAL COORDINATES **
   Searching for a Minimum

   Optimization Cycle:   7

                       Coordinates (Angstroms)
     ATOM                X               Y               Z
      1  S         1.7044239890    0.7130130988    0.9686161701
      2  C         3.1709261757    0.1168226495    0.2644518534
      3  C         2.9272379730   -0.6231517909   -0.8630312452
      4  C         1.5362796266   -0.7245929066   -1.1650336618
      5  C         0.7305911735   -0.0483155815   -0.2772436822
      6  H         1.1333224597   -1.2838914056   -2.0017794632
      7  C        -0.7305911735    0.0483155815   -0.2772436822
      8  S        -1.7044239890   -0.7130130988    0.9686161701
      9  C        -1.5362796266    0.7245929066   -1.1650336618
     10  C        -3.1709261757   -0.1168226495    0.2644518534
     11  C        -2.9272379730    0.6231517909   -0.8630312452
     12  H        -3.7096130116    1.0878104262   -1.4522784458
     13  H         4.1240576915    0.3477874488    0.7206934345
     14  H         3.7096130116   -1.0878104262   -1.4522784458
     15  H        -4.1240576915   -0.3477874488    0.7206934345
     16  H        -1.1333224597    1.2838914056   -2.0017794632
   Point Group: c2    Number of degrees of freedom:    22


   Energy is  -1104.837944660

              Constraints and their Current Values
                                        Value     Constraint
   Dihedral:        4   5   7   9      -70.000      -70.000
 Hessian Updated using BFGS Update

 21 Hessian modes will be used to form the next step
  Hessian Eigenvalues:
     0.009656    0.041200    0.044984    0.045001    0.045058    0.045372
     0.136151    0.160030    0.160380    0.177061    0.222671    0.282232
     0.289937    0.315579    0.357227    0.359579    0.362088    0.390195
     0.438973    0.480279    0.541087

 Minimum Search - Taking Simple RFO Step
 Searching for Lamda that Minimizes Along All modes
 Value Taken    Lamda =   0.00000000
 Step Taken.  Stepsize is  0.001322

                             Maximum     Tolerance    Cnvgd?
         Gradient           0.000085      0.000300     YES
         Displacement       0.000695      0.001200     YES
         Energy change     -0.000000      0.000001     YES

 Final energy is   -1104.83794465951     


 ******************************
 **  OPTIMIZATION CONVERGED  **
 ******************************

                       Coordinates (Angstroms)
     ATOM                X               Y               Z
      1  S         1.7044239890    0.7130130988    0.9686161701
      2  C         3.1709261757    0.1168226495    0.2644518534
      3  C         2.9272379730   -0.6231517909   -0.8630312452
      4  C         1.5362796266   -0.7245929066   -1.1650336618
      5  C         0.7305911735   -0.0483155815   -0.2772436822
      6  H         1.1333224597   -1.2838914056   -2.0017794632
      7  C        -0.7305911735    0.0483155815   -0.2772436822
      8  S        -1.7044239890   -0.7130130988    0.9686161701
      9  C        -1.5362796266    0.7245929066   -1.1650336618
     10  C        -3.1709261757   -0.1168226495    0.2644518534
     11  C        -2.9272379730    0.6231517909   -0.8630312452
     12  H        -3.7096130116    1.0878104262   -1.4522784458
     13  H         4.1240576915    0.3477874488    0.7206934345
     14  H         3.7096130116   -1.0878104262   -1.4522784458
     15  H        -4.1240576915   -0.3477874488    0.7206934345
     16  H        -1.1333224597    1.2838914056   -2.0017794632

Z-matrix Print:
$molecule
0 1
S 
C  1 1.732605
H  2 1.081647 1 120.062429
C  2 1.370461 1 111.694235 3 179.883923 0
H  4 1.084081 2 123.386246 1 179.863980 0
C  4 1.426976 2 112.695005 1 0.468522 0
H  6 1.084128 4 124.216798 2 178.604742 0
C  6 1.376465 4 113.523731 2 -0.782311 0
C  8 1.464374 6 128.059298 4 179.337873 0
C  9 1.376465 8 128.059298 6 70.000025 0
H  10 1.084128 9 122.256531 8 -0.062771 0
C  10 1.426976 9 113.523731 8 179.337873 0
H  12 1.084081 10 123.915789 9 179.825962 0
C  12 1.370461 10 112.695005 9 -0.782311 0
H  14 1.081647 12 128.243216 10 -179.659392 0
S  14 1.732605 12 111.694235 10 0.468522 0
$end

 
 --------------------------------------------------------------
             Orbital Energies (a.u.) and Symmetries
 --------------------------------------------------------------
 
 Alpha MOs, Restricted
 -- Occupied --                  
-88.919 -88.919 -10.236 -10.236 -10.225 -10.225 -10.204 -10.204
  1 B     1 A     2 A     2 B     3 B     3 A     4 A     4 B                  
-10.203 -10.203  -7.978  -7.978  -5.942  -5.942  -5.939  -5.939
  5 B     5 A     6 B     6 A     7 B     7 A     8 B     8 A                  
 -5.936  -5.936  -0.898  -0.877  -0.769  -0.744  -0.740  -0.705
  9 B     9 A    10 A    10 B    11 A    12 A    11 B    12 B                  
 -0.601  -0.570  -0.562  -0.534  -0.523  -0.477  -0.418  -0.414
 13 A    14 A    13 B    14 B    15 A    15 B    16 A    17 A                  
 -0.412  -0.405  -0.394  -0.375  -0.374  -0.352  -0.349  -0.264
 16 B    17 B    18 A    18 B    19 A    20 A    19 B    21 A                  
 -0.258  -0.256  -0.231
 20 B    21 B    22 A                                                          
 -- Virtual --                   
 -0.042  -0.025  -0.006  -0.002   0.006   0.014   0.019   0.026
 22 B    23 A    24 A    23 B    25 A    24 B    26 A    25 B                  
  0.026   0.035   0.035   0.042   0.045   0.046   0.064   0.065
 27 A    28 A    26 B    27 B    29 A    28 B    30 A    29 B                  
  0.071   0.072   0.086   0.100   0.102   0.104   0.106   0.116
 31 A    30 B    32 A    31 B    33 A    32 B    34 A    35 A                  
  0.117   0.117   0.122   0.130   0.132   0.133   0.139   0.144
 33 B    34 B    36 A    35 B    37 A    36 B    38 A    37 B                  
  0.146   0.149   0.159   0.162   0.163   0.175   0.178   0.182
 38 B    39 A    40 A    39 B    41 A    42 A    40 B    43 A                  
  0.184   0.189   0.195   0.203   0.213   0.219   0.224   0.229
 41 B    42 B    43 B    44 A    44 B    45 A    45 B    46 A                  
  0.239   0.250   0.259   0.263   0.273   0.275   0.298   0.302
 46 B    47 B    47 A    48 B    48 A    49 A    49 B    50 A                  
  0.309   0.315   0.324   0.331   0.355   0.365   0.372   0.395
 50 B    51 B    51 A    52 A    53 A    52 B    53 B    54 A                  
  0.433   0.466   0.474   0.500   0.524   0.525   0.553   0.573
 54 B    55 A    56 A    55 B    57 A    56 B    57 B    58 A                  
  0.579   0.593   0.608   0.643   0.650   0.653   0.669   0.674
 58 B    59 A    59 B    60 A    60 B    61 A    62 A    61 B                  
  0.690   0.699   0.725   0.727   0.737   0.758   0.763   0.775
 62 B    63 A    64 A    63 B    64 B    65 B    65 A    66 B                  
  0.775   0.802   0.804   0.827   0.842   0.898   0.905   0.944
 66 A    67 A    67 B    68 A    68 B    69 A    69 B    70 A                  
  0.954   0.958   0.962   0.966   0.971   0.990   0.991   1.015
 70 B    71 A    71 B    72 A    72 B    73 A    73 B    74 A                  
  1.017   1.029   1.041   1.051   1.081   1.099   1.101   1.105
 74 B    75 B    76 B    75 A    76 A    77 B    77 A    78 A                  
  1.130   1.183   1.206   1.220   1.238   1.285   1.325   1.349
 78 B    79 A    80 A    79 B    80 B    81 A    81 B    82 A                  
  1.353   1.360   1.361   1.391   1.447   1.462   1.496   1.527
 82 B    83 A    83 B    84 A    84 B    85 B    85 A    86 A                  
  1.573   1.692   1.693   1.787   1.805   1.866   1.881   1.882
 86 B    87 A    87 B    88 A    88 B    89 A    90 A    89 B                  
  1.913   1.925   1.943   1.961   2.018   2.020   2.064   2.083
 90 B    91 A    92 A    91 B    92 B    93 A    93 B    94 A                  
  2.132   2.165   2.186   2.212   2.216   2.249   2.252   2.323
 95 A    94 B    95 B    96 B    96 A    97 B    97 A    98 A                  
  2.366   2.371   2.434   2.444   2.460   2.475   2.490   2.512
 99 A    98 B    99 B   100 A   101 A   100 B   101 B   102 B                  
  2.514   2.531   2.584   2.585   2.628   2.630   2.695   2.706
102 A   103 A   104 A   103 B   104 B   105 A   105 B   106 A                  
  2.763   2.810   2.873   2.873   2.937   3.156   3.184   3.269
106 B   107 A   108 A   107 B   108 B   109 A   109 B   110 B                  
  3.271   3.402   3.426   3.720   3.743   3.960   3.978   4.280
110 A   111 A   111 B   112 A   112 B   113 A   113 B   114 A                  
  4.311   4.322   4.329   4.429   4.534   4.659   4.711
115 A   114 B   115 B   116 A   116 B   117 A   117 B                          
 
 Beta MOs, Restricted
 -- Occupied --                  
-88.919 -88.919 -10.236 -10.236 -10.225 -10.225 -10.204 -10.204
  1 B     1 A     2 A     2 B     3 B     3 A     4 A     4 B                  
-10.203 -10.203  -7.978  -7.978  -5.942  -5.942  -5.939  -5.939
  5 B     5 A     6 B     6 A     7 B     7 A     8 B     8 A                  
 -5.936  -5.936  -0.898  -0.877  -0.769  -0.744  -0.740  -0.705
  9 B     9 A    10 A    10 B    11 A    12 A    11 B    12 B                  
 -0.601  -0.570  -0.562  -0.534  -0.523  -0.477  -0.418  -0.414
 13 A    14 A    13 B    14 B    15 A    15 B    16 A    17 A                  
 -0.412  -0.405  -0.394  -0.375  -0.374  -0.352  -0.349  -0.264
 16 B    17 B    18 A    18 B    19 A    20 A    19 B    21 A                  
 -0.258  -0.256  -0.231
 20 B    21 B    22 A                                                          
 -- Virtual --                   
 -0.042  -0.025  -0.006  -0.002   0.006   0.014   0.019   0.026
 22 B    23 A    24 A    23 B    25 A    24 B    26 A    25 B                  
  0.026   0.035   0.035   0.042   0.045   0.046   0.064   0.065
 27 A    28 A    26 B    27 B    29 A    28 B    30 A    29 B                  
  0.071   0.072   0.086   0.100   0.102   0.104   0.106   0.116
 31 A    30 B    32 A    31 B    33 A    32 B    34 A    35 A                  
  0.117   0.117   0.122   0.130   0.132   0.133   0.139   0.144
 33 B    34 B    36 A    35 B    37 A    36 B    38 A    37 B                  
  0.146   0.149   0.159   0.162   0.163   0.175   0.178   0.182
 38 B    39 A    40 A    39 B    41 A    42 A    40 B    43 A                  
  0.184   0.189   0.195   0.203   0.213   0.219   0.224   0.229
 41 B    42 B    43 B    44 A    44 B    45 A    45 B    46 A                  
  0.239   0.250   0.259   0.263   0.273   0.275   0.298   0.302
 46 B    47 B    47 A    48 B    48 A    49 A    49 B    50 A                  
  0.309   0.315   0.324   0.331   0.355   0.365   0.372   0.395
 50 B    51 B    51 A    52 A    53 A    52 B    53 B    54 A                  
  0.433   0.466   0.474   0.500   0.524   0.525   0.553   0.573
 54 B    55 A    56 A    55 B    57 A    56 B    57 B    58 A                  
  0.579   0.593   0.608   0.643   0.650   0.653   0.669   0.674
 58 B    59 A    59 B    60 A    60 B    61 A    62 A    61 B                  
  0.690   0.699   0.725   0.727   0.737   0.758   0.763   0.775
 62 B    63 A    64 A    63 B    64 B    65 B    65 A    66 B                  
  0.775   0.802   0.804   0.827   0.842   0.898   0.905   0.944
 66 A    67 A    67 B    68 A    68 B    69 A    69 B    70 A                  
  0.954   0.958   0.962   0.966   0.971   0.990   0.991   1.015
 70 B    71 A    71 B    72 A    72 B    73 A    73 B    74 A                  
  1.017   1.029   1.041   1.051   1.081   1.099   1.101   1.105
 74 B    75 B    76 B    75 A    76 A    77 B    77 A    78 A                  
  1.130   1.183   1.206   1.220   1.238   1.285   1.325   1.349
 78 B    79 A    80 A    79 B    80 B    81 A    81 B    82 A                  
  1.353   1.360   1.361   1.391   1.447   1.462   1.496   1.527
 82 B    83 A    83 B    84 A    84 B    85 B    85 A    86 A                  
  1.573   1.692   1.693   1.787   1.805   1.866   1.881   1.882
 86 B    87 A    87 B    88 A    88 B    89 A    90 A    89 B                  
  1.913   1.925   1.943   1.961   2.018   2.020   2.064   2.083
 90 B    91 A    92 A    91 B    92 B    93 A    93 B    94 A                  
  2.132   2.165   2.186   2.212   2.216   2.249   2.252   2.323
 95 A    94 B    95 B    96 B    96 A    97 B    97 A    98 A                  
  2.366   2.371   2.434   2.444   2.460   2.475   2.490   2.512
 99 A    98 B    99 B   100 A   101 A   100 B   101 B   102 B                  
  2.514   2.531   2.584   2.585   2.628   2.630   2.695   2.706
102 A   103 A   104 A   103 B   104 B   105 A   105 B   106 A                  
  2.763   2.810   2.873   2.873   2.937   3.156   3.184   3.269
106 B   107 A   108 A   107 B   108 B   109 A   109 B   110 B                  
  3.271   3.402   3.426   3.720   3.743   3.960   3.978   4.280
110 A   111 A   111 B   112 A   112 B   113 A   113 B   114 A                  
  4.311   4.322   4.329   4.429   4.534   4.659   4.711
115 A   114 B   115 B   116 A   116 B   117 A   117 B                          
 --------------------------------------------------------------
 
          Ground-State Mulliken Net Atomic Charges

     Atom                 Charge (a.u.)
  ----------------------------------------
      1 S                     0.034450
      2 C                    -0.035200
      3 C                    -0.422603
      4 C                     0.339393
      5 C                    -0.361286
      6 H                     0.139131
      7 C                    -0.361286
      8 S                     0.034450
      9 C                     0.339393
     10 C                    -0.035200
     11 C                    -0.422603
     12 H                     0.117064
     13 H                     0.189052
     14 H                     0.117064
     15 H                     0.189052
     16 H                     0.139131
  ----------------------------------------
  Sum of atomic charges =    -0.000000

 -----------------------------------------------------------------
                    Cartesian Multipole Moments
 -----------------------------------------------------------------
    Charge (ESU x 10^10)
                -0.0000
    Dipole Moment (Debye)
         X      -0.0000      Y      -0.0000      Z      -0.8414
       Tot       0.8414
    Quadrupole Moments (Debye-Ang)
        XX     -61.0534     XY      -1.3370     YY     -75.2666
        XZ      -0.0000     YZ       0.0000     ZZ     -71.1637
    Octopole Moments (Debye-Ang^2)
       XXX      -0.0000    XXY      -0.0000    XYY      -0.0000
       YYY      -0.0000    XXZ       5.7877    XYZ      13.2681
       YYZ      -3.3255    XZZ      -0.0000    YZZ      -0.0000
       ZZZ      -4.3542
    Hexadecapole Moments (Debye-Ang^3)
      XXXX   -1885.7696   XXXY       1.4362   XXYY    -419.7443
      XYYY       5.9342   YYYY    -269.6870   XXXZ      -0.0000
      XXYZ      -0.0000   XYYZ      -0.0000   YYYZ       0.0000
      XXZZ    -414.0078   XYZZ      -8.9315   YYZZ    -106.1992
      XZZZ      -0.0000   YZZZ       0.0000   ZZZZ    -434.1172
 -----------------------------------------------------------------
Archival summary:
1\1\nid01044\OPT\ProcedureUnspecified\BasisUnspecified\286\FriSep218:20:152016FriSep218:20:152016\0\\#,OPT,ProcedureUnspecified,BasisUnspecified,\\0,1\S\C,1,1.7326\H,2,1.08165,1,120.062\C,2,1.37046,1,111.694,3,179.884,0\H,4,1.08408,2,123.386,1,179.864,0\C,4,1.42698,2,112.695,1,0.468522,0\H,6,1.08413,4,124.217,2,178.605,0\C,6,1.37647,4,113.524,2,-0.782311,0\C,8,1.46437,6,128.059,4,179.338,0\C,9,1.37647,8,128.059,6,70,0\H,10,1.08413,9,122.257,8,-0.0627714,0\C,10,1.42698,9,113.524,8,179.338,0\H,12,1.08408,10,123.916,9,179.826,0\C,12,1.37046,10,112.695,9,-0.782311,0\H,14,1.08165,12,128.243,10,-179.659,0\S,14,1.7326,12,111.694,10,0.468522,0\\\@

 Total job time:  77.27s(wall), 87.62s(cpu) 
 Fri Sep  2 18:20:15 2016

        *************************************************************
        *                                                           *
        *  Thank you very much for using Q-Chem.  Have a nice day.  *
        *                                                           *
        *************************************************************


0 sent ACK to 0 
now end server 0 ... 
