srun -N 1 --ntasks-per-node 16 --nodelist nid01044 /global/project/projectdirs/jcesr/qchem/qc44/cnl_qc441/dist/exe/qcprog.cori.exe .pt_dft_160.0.in.59344.qcin.1 /dev/shm/eg_qchem/qchem59344/
Process 1 of 16 is on nid01044 - thread support 0
Process 2 of 16 is on nid01044 - thread support 0
Process 3 of 16 is on nid01044 - thread support 0
Process 4 of 16 is on nid01044 - thread support 0
Process 5 of 16 is on nid01044 - thread support 0
Process 6 of 16 is on nid01044 - thread support 0
Process 0 of 16 is on nid01044 - thread support 0
Process 15 of 16 is on nid01044 - thread support 0
initial socket setup ...start
initial socket setup ...done 
now start server 0 ... 
nid01044 10.128.4
Q-Chem Developer Version! Running on 10.128.4.*
                  Welcome to Q-Chem
     A Quantum Leap Into The Future Of Chemistry


 Q-Chem 4.4, Q-Chem, Inc., Pleasanton, CA (2016)

 Y. Shao,  Z. Gan,  E. Epifanovsky,  A. T. B. Gilbert,  M. Wormit,  
 J. Kussmann,  A. W. Lange,  A. Behn,  J. Deng,  X. Feng,  D. Ghosh,  
 M. Goldey,  P. R. Horn,  L. D. Jacobson,  I. Kaliman,  F.Rob,  
 R. Z. Khaliullin,  T. Kus,  A. Landau,  J. Liu,  E. I. Proynov,  Y. M. Rhee,  
 R. M. Richard,  M. A. Rohrdanz,  R. P. Steele,  E. J. Sundstrom,  
 H. L. Woodcock III,  P. M. Zimmerman,  D. Zuev,  B. Albrecht,  E. Alguire,  
 B. Austin,  S. A. Baeppler,  G. J. O. Beran,  Y. A. Bernard,  E. Berquist,  
 K. Brandhorst,  K. B. Bravaya,  S. T. Brown,  D. Casanova,  C.-M. Chang,  
 Y. Chen,  S. H. Chien,  K. D. Closser,  M. P. Coons,  D. L. Crittenden,  
 S. Dasgupta,  M. Diedenhofen,  R. A. DiStasio Jr.,  H. Do,  A. D. Dutoi,  
 R. G. Edgar,  P.-T. Fang,  S. Fatehi,  Q. Feng,  L. Fusti-Molnar,  
 A. Ghysels,  A. Golubeva-Zadorozhnaya,  J. Gomes,  A. Gunina,  
 M. W. D. Hanson-Heine,  P. H. P. Harbach,  A. W. Hauser,  E. G. Hohenstein,  
 Z. C. Holden,  K. Hui,  T.-C. Jagau,  H. Ji,  B. Kaduk,  K. Khistyaev,  
 Jaehoon Kim,  Jihan Kim,  R. A. King,  P. Klunzinger,  D. Kosenkov,  
 T. Kowalczyk,  C. M. Krauter,  A. Kunitsa,  K. U. Lao,  A. Laurent,  
 K. V. Lawler,  D. Lefrancois,  S. Lehtola,  S. V. Levchenko,  C. Y. Lin,  
 Y.-S. Lin,  F. Liu,  E. Livshits,  R. C. Lochan,  A. Luenser,  P. Manohar,  
 S. F. Manzer,  S.-P. Mao,  Y. Mao,  N. Mardirossian,  A. V. Marenich,  
 L. A. Martinez-Martinez,  S. A. Maurer,  N. J. Mayhall,  J.-M. Mewes,  
 A. F. Morrison,  K. Nanda,  C. M. Oana,  R. Olivares-Amaya,  D. P. O'Neill,  
 J. A. Parkhill,  T. M. Perrine,  R. Peverati,  P. A. Pieniazek,  F. Plasser,  
 A. Prociuk,  D. R. Rehn,  E. Rosta,  N. J. Russ,  N. Sergueev,  
 S. M. Sharada,  S. Sharma,  D. W. Small,  A. Sodt,  T. Stauch,  T. Stein,  
 D. Stuck,  Y.-C. Su,  A. J. W. Thom,  T. Tsuchimochi,  L. Vogt,  O. Vydrov,  
 T. Wang,  M. A. Watson,  J. Wenzel,  A. White,  C. F. Williams,  
 V. Vanovschi,  S. Yeganeh,  S. R. Yost,  Z.-Q. You,  I. Y. Zhang,  X. Zhang,  
 Y. Zhao,  B. R. Brooks,  G. K. L. Chan,  D. M. Chipman,  C. J. Cramer,  
 W. A. Goddard III,  M. S. Gordon,  W. J. Hehre,  A. Klamt,  
 H. F. Schaefer III,  M. W. Schmidt,  C. D. Sherrill,  D. G. Truhlar,  
 A. Warshel,  X. Xu,  A. Aspuru-Guzik,  R. Baer,  A. T. Bell,  N. A. Besley,  
 J.-D. Chai,  A. Dreuw,  B. D. Dunietz,  T. R. Furlani,  S. R. Gwaltney,  
 C.-P. Hsu,  Y. Jung,  J. Kong,  D. S. Lambrecht,  W. Liang,  C. Ochsenfeld,  
 V. A. Rassolov,  L. V. Slipchenko,  J. E. Subotnik,  T. Van Voorhis,  
 J. M. Herbert,  A. I. Krylov,  P. M. W. Gill,  M. Head-Gordon

 Contributors to earlier versions of Q-Chem not listed above: 
 R. D. Adamson,  J. Baker,  E. F. C. Byrd,  A. K. Chakraborty,  C.-L. Cheng,  
 H. Dachsel,  R. J. Doerksen,  G. Hawkins,  A. Heyden,  S. Hirata,  
 G. Kedziora,  F. J. Keil,  C. Kelley,  P. P. Korambath,  W. Kurlancheek,  
 A. M. Lee,  M. S. Lee,  D. Liotard,  I. Lotan,  P. E. Maslen,  N. Nair,  
 D. Neuhauser,  R. Olson,  B. Peters,  J. Ritchie,  N. E. Schultz,  
 N. Shenvi,  A. C. Simmonett,  K. S. Thanthiriwatte,  Q. Wu,  W. Zhang

 Please cite Q-Chem as follows:
 Y. Shao et al., Mol. Phys. 113, 184-215 (2015)
 DOI: 10.1080/00268976.2014.952696

 Q-Chem 4.4.1 for Intel X86 EM64T Linux

 Parts of Q-Chem use Armadillo 5.200.1 (Boston Tea Smuggler).
 http://arma.sourceforge.net/

 Q-Chem begins on Fri Sep  2 18:43:13 2016  

Host: nid01043
0

     Scratch files written to /dev/shm/eg_qchem/qchem59344.0//
 Parallel job on  16  processors

Checking the input file for inconsistencies... 	...done.

--------------------------------------------------------------
User input:
--------------------------------------------------------------
$comment
<SCF Fix Strategy>{
    "current_method_id": 1, 
    "methods": [
        "increase_iter", 
        "rca_diis", 
        "gwh", 
        "gdm", 
        "rca", 
        "core+rca", 
        "fon"
    ], 
    "version": 2.0
}</SCF Fix Strategy>
$end


$molecule
 0  1
 S           1.82267924       -1.19997629        0.28714109
 C           3.20006180       -0.17260711        0.06528466
 C           2.82980603        1.10216298       -0.25610036
 C           1.41909100        1.26345446       -0.34254814
 C           0.71738150        0.10901545       -0.08456145
 H           0.93627498        2.19419272       -0.61095402
 C          -0.71741859       -0.10899254       -0.08455524
 S          -1.82833654        1.23700497        0.08114651
 C          -1.41525994       -1.28890056       -0.19643547
 C          -3.20227387        0.18695102       -0.02643323
 C          -2.82723615       -1.11930511       -0.16229422
 H          -3.53327929       -1.93490739       -0.24601901
 H           4.19429620       -0.57452886        0.18632814
 H           3.53860725        1.89960515       -0.43610218
 H          -4.19823526        0.60024430        0.01766002
 H          -0.92829611       -2.24694932       -0.32463665
$end


$rem
         jobtype = opt
        exchange = b3lyp
           basis = 6-31++g**
  max_scf_cycles = 200
      mem_static = 100
       mem_total = 1500
   scf_algorithm = rca_diis
       scf_guess = sad
$end


$opt
CONSTRAINT
tors 4 5 7 9 160.0
ENDCONSTRAINT
$end

--------------------------------------------------------------
 Atom   8: ( -1.8457279866,  1.1920967902,  0.2084497538)
         ->( -1.8457281505,  1.1920968350,  0.2084496355)
 Atom  10: ( -3.2039387594,  0.1291338123,  0.0433325548)
         ->( -3.2039387499,  0.1291336408,  0.0433325865)
 Atom  11: ( -2.8097636561, -1.1583134622, -0.1858444084)
         ->( -2.8097635015, -1.1583135725, -0.1858441908)
 Atom   9: ( -1.3957568827, -1.3016203867, -0.2462847039)
         ->( -1.3957567339, -1.3016202936, -0.2462850793)
 Atom   7: ( -0.7155274026, -0.1206867289, -0.0609034167)
         ->( -0.7155273485, -0.1206865946, -0.0609034078)
 Atom  16: ( -0.8951279358, -2.2403868140, -0.4450684890)
         ->( -0.8951276938, -2.2403865998, -0.4450691850)
 Atom  14: (  3.5036630442,  1.9779140885, -0.3180268599)
         ->(  3.5036632989,  1.9779138638, -0.3180272465)
 Atom  15: ( -4.2057727813,  0.5217820397,  0.1261009211)
         ->( -4.2057728569,  0.5217816599,  0.1261010251)
 ----------------------------------------------------------------
             Standard Nuclear Orientation (Angstroms)
    I     Atom           X                Y                Z
 ----------------------------------------------------------------
    1      S       1.8457281505    -1.1920968350     0.2084496355
    2      C       3.2039387499    -0.1291336408     0.0433325865
    3      C       2.8097635015     1.1583135725    -0.1858441908
    4      C       1.3957567339     1.3016202936    -0.2462850793
    5      C       0.7155273485     0.1206865946    -0.0609034078
    6      H       0.8951276938     2.2403865998    -0.4450691850
    7      C      -0.7155273485    -0.1206865946    -0.0609034078
    8      S      -1.8457281505     1.1920968350     0.2084496355
    9      C      -1.3957567339    -1.3016202936    -0.2462850793
   10      C      -3.2039387499     0.1291336408     0.0433325865
   11      C      -2.8097635015    -1.1583135725    -0.1858441908
   12      H      -3.5036632989    -1.9779138638    -0.3180272465
   13      H       4.2057728569    -0.5217816599     0.1261010251
   14      H       3.5036632989     1.9779138638    -0.3180272465
   15      H      -4.2057728569     0.5217816599     0.1261010251
   16      H      -0.8951276938    -2.2403865998    -0.4450691850
 ----------------------------------------------------------------
 Molecular Point Group                 C2    NOp =  2
 Largest Abelian Subgroup              C2    NOp =  2
 Nuclear Repulsion Energy =   630.2225181141 hartrees
 There are       43 alpha and       43 beta electrons
 Requested basis set is 6-31++G(d,p)
 There are 76 shells and 234 basis functions

 Total QAlloc Memory Limit   1500 MB
 Mega-Array Size        98 MB
 MEM_STATIC part       100 MB
 A cutoff of  1.0D-12 yielded   2529 shell pairs
 There are     24905 function pairs
 
 -------------------------------------------------------
 OpenMP Integral Computing Module                       
 Release: version 1.0, May 2013, Q-Chem Inc. Pittsburgh 
 -------------------------------------------------------
 Integral Job Info:
 Integral job number is                      11
 Integral operator is                         1
 short-range coefficients                     0
 long-range coefficients              100000000
 Omega coefficients                           0
 if combine SR and LR in K                    0
 Integral screening is                        0
 Integral computing path is                   2
 max size of driver memory is            800000
 size of driver memory is                593474
 size of scratch memory is             15166112
 max col of scratch BK array               1296
 max len of scratch array in speh3          155
 max len of scratch index in speh4           18
 max int batch size is                      520
 min int batch size is                       52
 fixed nKL is                                52
 max L of basis functions is                  2
 order of int derivative is                   0
 number of shells is                         76
 number of basis is                         234
 number of cartesian basis is               234
 number of contracted shell pairs          2529
 number of primitive shell pairs           8272
 maxK2 (contraction) of shell pair           36
 max number of K2 of shell pair               1
 max number of CS2 of shell pair            266
 max number of PS2 of shell pair           1524
 mem total for path MDJ                   51992
 -------------------------------------------------------
 Smallest overlap matrix eigenvalue = 9.31E-07
 Linear dependence detected in AO basis
 Number of orthogonalized atomic orbitals = 233
 Maximum deviation from orthogonality = 5.730E-11

 Scale SEOQF with 1.000000e-01/1.000000e-01/1.000000e-01

 Standard Electronic Orientation quadrupole field applied
 Nucleus-field energy     =     0.0000000218 hartrees
 Guess from superposition of atomic densities
 Warning:  Energy on first SCF cycle will be non-variational
 A restricted hybrid HF-DFT SCF calculation will be
 performed using Relaxed Constraint Minimization + Pulay DIIS
 Exchange:     0.2000 Hartree-Fock + 0.0800 Slater + 0.7200 B88
 Correlation:  0.1900 VWN1RPA + 0.8100 LYP
 Using SG-1 standard quadrature grid
 SCF converges when DIIS error is below 1.0E-08
 ---------------------------------------
  Cycle       Energy         DIIS Error
 ---------------------------------------
    1   -1107.2319344487      4.46E-02
 Inaccurate integrated density:
   Number of electrons =    86
   Numerical integral  =    85.980755111886
   Relative error      =    -0.0223777769 %
 Inaccurate integrated density:
   Number of electrons =    86
   Numerical integral  =    85.980755111886
   Relative error      =    -0.0223777769 %
    2   -1053.8690333603      4.50E-01
 Inaccurate integrated density:
   Number of electrons =    86
   Numerical integral  =    85.990448829546
   Relative error      =    -0.0111060122 %
    3   -1090.1233868250      4.48E-02
 Inaccurate integrated density:
   Number of electrons =    86
   Numerical integral  =    85.967476495711
   Relative error      =    -0.0378180282 %
 Inaccurate integrated density:
   Number of electrons =    86
   Numerical integral  =    85.967628757944
   Relative error      =    -0.0376409791 %
    4   -1098.1950375767      2.05E-02
 Inaccurate integrated density:
   Number of electrons =    86
   Numerical integral  =    86.009618127123
   Relative error      =     0.0111838687 %
 Inaccurate integrated density:
   Number of electrons =    86
   Numerical integral  =    85.985838681889
   Relative error      =    -0.0164666490 %
    5   -1100.6064717967      1.13E-02
 Inaccurate integrated density:
   Number of electrons =    86
   Numerical integral  =    86.008752495415
   Relative error      =     0.0101773202 %
    6   -1102.5824394784      9.40E-03
    7   -1102.9110207356      3.62E-03
    8   -1104.6749498857      4.27E-03
    9   -1104.7331656439      1.33E-03
   10   -1104.8191582225      1.11E-03
   11   -1104.8274611573      3.21E-04 Done RCA. Switching to DIIS
   12   -1104.8377784808      6.24E-04
   13   -1104.8405837628      2.57E-05
   14   -1104.8405896611      1.18E-05
   15   -1104.8405908533      1.76E-06
   16   -1104.8405909601      3.86E-07
   17   -1104.8405909887      1.18E-07
   18   -1104.8405910026      2.53E-08
   19   -1104.8405910132      1.05E-08
   20   -1104.8405910155      2.31E-09 Convergence criterion met
 ---------------------------------------
 SCF time:  CPU 10.66 s  wall 9.21 s
 SCF   energy in the final basis set = -1104.8405910155
 Total energy in the final basis set = -1104.8405910155
 
 --------------------------------------------------------------
             Orbital Energies (a.u.) and Symmetries
 --------------------------------------------------------------
 
 Alpha MOs, Restricted
 -- Occupied --                  
-88.919 -88.919 -10.238 -10.238 -10.224 -10.224 -10.204 -10.204
  1 A     1 B     2 A     2 B     3 B     3 A     4 A     4 B                  
-10.202 -10.202  -7.979  -7.979  -5.943  -5.943  -5.939  -5.939
  5 B     5 A     6 A     6 B     7 A     7 B     8 B     8 A                  
 -5.936  -5.936  -0.902  -0.880  -0.773  -0.750  -0.738  -0.707
  9 B     9 A    10 A    10 B    11 A    11 B    12 A    12 B                  
 -0.604  -0.581  -0.552  -0.535  -0.528  -0.479  -0.420  -0.419
 13 A    13 B    14 A    14 B    15 A    15 B    16 B    16 A                  
 -0.409  -0.405  -0.401  -0.378  -0.375  -0.357  -0.344  -0.282
 17 A    17 B    18 A    19 A    18 B    19 B    20 A    21 A                  
 -0.264  -0.259  -0.213
 20 B    22 A    21 B                                                          
 -- Virtual --                   
 -0.057  -0.006  -0.004  -0.001   0.008   0.009   0.017   0.022
 23 A    24 A    22 B    23 B    25 A    24 B    25 B    26 A                  
  0.032   0.035   0.038   0.048   0.049   0.053   0.061   0.064
 27 A    28 A    26 B    29 A    30 A    27 B    28 B    29 B                  
  0.075   0.084   0.086   0.097   0.099   0.102   0.107   0.109
 30 B    31 A    31 B    32 A    32 B    33 A    34 A    35 A                  
  0.121   0.125   0.128   0.132   0.132   0.140   0.141   0.141
 33 B    34 B    36 A    37 A    35 B    36 B    38 A    37 B                  
  0.147   0.158   0.162   0.165   0.169   0.174   0.181   0.186
 39 A    38 B    39 B    40 A    41 A    40 B    42 A    41 B                  
  0.187   0.203   0.207   0.212   0.218   0.219   0.222   0.226
 43 A    42 B    43 B    44 A    44 B    45 A    46 A    45 B                  
  0.252   0.254   0.257   0.266   0.267   0.279   0.286   0.301
 46 B    47 A    47 B    48 B    48 A    49 A    49 B    50 A                  
  0.318   0.321   0.345   0.352   0.352   0.374   0.392   0.407
 51 A    50 B    52 A    51 B    53 A    52 B    54 A    53 B                  
  0.456   0.465   0.513   0.517   0.543   0.551   0.567   0.586
 54 B    55 A    55 B    56 A    57 A    56 B    57 B    58 A                  
  0.610   0.614   0.630   0.649   0.657   0.660   0.670   0.682
 59 A    58 B    60 A    59 B    60 B    61 A    61 B    62 A                  
  0.701   0.719   0.727   0.729   0.741   0.749   0.776   0.787
 63 A    62 B    64 A    63 B    64 B    65 A    66 A    65 B                  
  0.819   0.819   0.826   0.847   0.868   0.921   0.939   0.948
 66 B    67 A    67 B    68 A    69 A    68 B    70 A    69 B                  
  0.953   0.955   0.962   0.968   0.983   0.993   0.994   1.020
 70 B    71 A    72 A    71 B    72 B    73 A    73 B    74 B                  
  1.031   1.042   1.068   1.097   1.108   1.118   1.147   1.158
 74 A    75 A    76 A    77 A    75 B    76 B    77 B    78 A                  
  1.169   1.180   1.208   1.250   1.262   1.317   1.340   1.348
 78 B    79 A    80 A    81 A    79 B    80 B    82 A    81 B                  
  1.353   1.357   1.375   1.467   1.469   1.514   1.535   1.585
 83 A    82 B    84 A    83 B    85 A    84 B    85 B    86 A                  
  1.681   1.693   1.733   1.803   1.864   1.875   1.888   1.920
 87 A    86 B    88 A    89 A    90 A    87 B    88 B    91 A                  
  1.924   1.942   1.965   2.009   2.052   2.074   2.088   2.119
 89 B    92 A    90 B    93 A    91 B    94 A    92 B    93 B                  
  2.169   2.182   2.183   2.228   2.248   2.256   2.340   2.364
 95 A    96 A    94 B    97 A    95 B    96 B    98 A    97 B                  
  2.368   2.419   2.457   2.461   2.468   2.496   2.510   2.532
 99 A    98 B    99 B   100 A   101 A   100 B   102 A   103 A                  
  2.536   2.569   2.590   2.612   2.671   2.696   2.724   2.753
101 B   102 B   104 A   103 B   105 A   106 A   104 B   105 B                  
  2.864   2.875   2.932   2.941   3.152   3.213   3.272   3.279
107 A   106 B   108 A   107 B   108 B   109 A   109 B   110 A                  
  3.405   3.433   3.729   3.751   3.974   3.982   4.241   4.296
111 A   110 B   112 A   111 B   112 B   113 A   114 A   113 B                  
  4.309   4.321   4.411   4.536   4.661   4.719
115 A   114 B   116 A   115 B   117 A   116 B                                  
 
 Beta MOs, Restricted
 -- Occupied --                  
-88.919 -88.919 -10.238 -10.238 -10.224 -10.224 -10.204 -10.204
  1 A     1 B     2 A     2 B     3 B     3 A     4 A     4 B                  
-10.202 -10.202  -7.979  -7.979  -5.943  -5.943  -5.939  -5.939
  5 B     5 A     6 A     6 B     7 A     7 B     8 B     8 A                  
 -5.936  -5.936  -0.902  -0.880  -0.773  -0.750  -0.738  -0.707
  9 B     9 A    10 A    10 B    11 A    11 B    12 A    12 B                  
 -0.604  -0.581  -0.552  -0.535  -0.528  -0.479  -0.420  -0.419
 13 A    13 B    14 A    14 B    15 A    15 B    16 B    16 A                  
 -0.409  -0.405  -0.401  -0.378  -0.375  -0.357  -0.344  -0.282
 17 A    17 B    18 A    19 A    18 B    19 B    20 A    21 A                  
 -0.264  -0.259  -0.213
 20 B    22 A    21 B                                                          
 -- Virtual --                   
 -0.057  -0.006  -0.004  -0.001   0.008   0.009   0.017   0.022
 23 A    24 A    22 B    23 B    25 A    24 B    25 B    26 A                  
  0.032   0.035   0.038   0.048   0.049   0.053   0.061   0.064
 27 A    28 A    26 B    29 A    30 A    27 B    28 B    29 B                  
  0.075   0.084   0.086   0.097   0.099   0.102   0.107   0.109
 30 B    31 A    31 B    32 A    32 B    33 A    34 A    35 A                  
  0.121   0.125   0.128   0.132   0.132   0.140   0.141   0.141
 33 B    34 B    36 A    37 A    35 B    36 B    38 A    37 B                  
  0.147   0.158   0.162   0.165   0.169   0.174   0.181   0.186
 39 A    38 B    39 B    40 A    41 A    40 B    42 A    41 B                  
  0.187   0.203   0.207   0.212   0.218   0.219   0.222   0.226
 43 A    42 B    43 B    44 A    44 B    45 A    46 A    45 B                  
  0.252   0.254   0.257   0.266   0.267   0.279   0.286   0.301
 46 B    47 A    47 B    48 B    48 A    49 A    49 B    50 A                  
  0.318   0.321   0.345   0.352   0.352   0.374   0.392   0.407
 51 A    50 B    52 A    51 B    53 A    52 B    54 A    53 B                  
  0.456   0.465   0.513   0.517   0.543   0.551   0.567   0.586
 54 B    55 A    55 B    56 A    57 A    56 B    57 B    58 A                  
  0.610   0.614   0.630   0.649   0.657   0.660   0.670   0.682
 59 A    58 B    60 A    59 B    60 B    61 A    61 B    62 A                  
  0.701   0.719   0.727   0.729   0.741   0.749   0.776   0.787
 63 A    62 B    64 A    63 B    64 B    65 A    66 A    65 B                  
  0.819   0.819   0.826   0.847   0.868   0.921   0.939   0.948
 66 B    67 A    67 B    68 A    69 A    68 B    70 A    69 B                  
  0.953   0.955   0.962   0.968   0.983   0.993   0.994   1.020
 70 B    71 A    72 A    71 B    72 B    73 A    73 B    74 B                  
  1.031   1.042   1.068   1.097   1.108   1.118   1.147   1.158
 74 A    75 A    76 A    77 A    75 B    76 B    77 B    78 A                  
  1.169   1.180   1.208   1.250   1.262   1.317   1.340   1.348
 78 B    79 A    80 A    81 A    79 B    80 B    82 A    81 B                  
  1.353   1.357   1.375   1.467   1.469   1.514   1.535   1.585
 83 A    82 B    84 A    83 B    85 A    84 B    85 B    86 A                  
  1.681   1.693   1.733   1.803   1.864   1.875   1.888   1.920
 87 A    86 B    88 A    89 A    90 A    87 B    88 B    91 A                  
  1.924   1.942   1.965   2.009   2.052   2.074   2.088   2.119
 89 B    92 A    90 B    93 A    91 B    94 A    92 B    93 B                  
  2.169   2.182   2.183   2.228   2.248   2.256   2.340   2.364
 95 A    96 A    94 B    97 A    95 B    96 B    98 A    97 B                  
  2.368   2.419   2.457   2.461   2.468   2.496   2.510   2.532
 99 A    98 B    99 B   100 A   101 A   100 B   102 A   103 A                  
  2.536   2.569   2.590   2.612   2.671   2.696   2.724   2.753
101 B   102 B   104 A   103 B   105 A   106 A   104 B   105 B                  
  2.864   2.875   2.932   2.941   3.152   3.213   3.272   3.279
107 A   106 B   108 A   107 B   108 B   109 A   109 B   110 A                  
  3.405   3.433   3.729   3.751   3.974   3.982   4.241   4.296
111 A   110 B   112 A   111 B   112 B   113 A   114 A   113 B                  
  4.309   4.321   4.411   4.536   4.661   4.719
115 A   114 B   116 A   115 B   117 A   116 B                                  
 --------------------------------------------------------------
 
          Ground-State Mulliken Net Atomic Charges

     Atom                 Charge (a.u.)
  ----------------------------------------
      1 S                    -0.105621
      2 C                     0.017228
      3 C                    -0.357651
      4 C                     0.381282
      5 C                    -0.373451
      6 H                     0.122663
      7 C                    -0.373451
      8 S                    -0.105621
      9 C                     0.381282
     10 C                     0.017228
     11 C                    -0.357651
     12 H                     0.119386
     13 H                     0.196165
     14 H                     0.119386
     15 H                     0.196165
     16 H                     0.122663
  ----------------------------------------
  Sum of atomic charges =    -0.000000

 -----------------------------------------------------------------
                    Cartesian Multipole Moments
 -----------------------------------------------------------------
    Charge (ESU x 10^10)
                 0.0000
    Dipole Moment (Debye)
         X      -0.0000      Y      -0.0000      Z      -0.2365
       Tot       0.2365
    Quadrupole Moments (Debye-Ang)
        XX     -61.1652     XY       1.5837     YY     -68.3517
        XZ       0.0000     YZ       0.0000     ZZ     -78.4725
    Octopole Moments (Debye-Ang^2)
       XXX      -0.0000    XXY      -0.0000    XYY      -0.0000
       YYY       0.0000    XXZ       1.7832    XYZ      -4.5314
       YYZ      -3.2335    XZZ      -0.0000    YZZ      -0.0000
       ZZZ       1.8627
    Hexadecapole Moments (Debye-Ang^3)
      XXXX   -1882.5999   XXXY     -23.0797   XXYY    -420.0923
      XYYY      17.4667   YYYY    -552.9720   XXXZ      -0.0000
      XXYZ       0.0000   XYYZ      -0.0000   YYYZ      -0.0000
      XXZZ    -424.6035   XYZZ      -6.8994   YYZZ    -123.4445
      XZZZ       0.0000   YZZZ       0.0000   ZZZZ    -120.1563
 -----------------------------------------------------------------
 Calculating analytic gradient of the SCF energy
 Gradient of SCF Energy
            1           2           3           4           5           6
    1   0.0002893  -0.0007302  -0.0006140  -0.0002356   0.0015127   0.0005240
    2   0.0017237   0.0026694  -0.0028062  -0.0023995   0.0028755  -0.0014223
    3  -0.0002267  -0.0005984   0.0005618   0.0009010  -0.0007810   0.0001356
            7           8           9          10          11          12
    1  -0.0015127  -0.0002893   0.0002356   0.0007302   0.0006140   0.0008851
    2  -0.0028755  -0.0017237   0.0023995  -0.0026694   0.0028062   0.0011682
    3  -0.0007810  -0.0002267   0.0009010  -0.0005984   0.0005618   0.0001678
           13          14          15          16
    1  -0.0015165  -0.0008851   0.0015165  -0.0005240
    2   0.0003984  -0.0011682  -0.0003984   0.0014223
    3  -0.0001600   0.0001678  -0.0001600   0.0001356
 Max gradient component =       2.876E-03
 RMS gradient           =       1.361E-03
 Gradient time:  CPU 2.07 s  wall 2.02 s
 Geometry Optimization Parameters
   NAtoms,    NIC,     NZ,  NCons,   NDum,   NFix, NCnnct, MaxDiis
       16     111       0       1       0       0       0       0


** CONSTRAINED OPTIMIZATION IN DELOCALIZED INTERNAL COORDINATES **
   Searching for a Minimum

   Optimization Cycle:   1

                       Coordinates (Angstroms)
     ATOM                X               Y               Z
      1  S         1.8457281505   -1.1920968350    0.2084496355
      2  C         3.2039387499   -0.1291336408    0.0433325865
      3  C         2.8097635015    1.1583135725   -0.1858441908
      4  C         1.3957567339    1.3016202936   -0.2462850793
      5  C         0.7155273485    0.1206865946   -0.0609034078
      6  H         0.8951276938    2.2403865998   -0.4450691850
      7  C        -0.7155273485   -0.1206865946   -0.0609034078
      8  S        -1.8457281505    1.1920968350    0.2084496355
      9  C        -1.3957567339   -1.3016202936   -0.2462850793
     10  C        -3.2039387499    0.1291336408    0.0433325865
     11  C        -2.8097635015   -1.1583135725   -0.1858441908
     12  H        -3.5036632989   -1.9779138638   -0.3180272465
     13  H         4.2057728569   -0.5217816599    0.1261010251
     14  H         3.5036632989    1.9779138638   -0.3180272465
     15  H        -4.2057728569    0.5217816599    0.1261010251
     16  H        -0.8951276938   -2.2403865998   -0.4450691850
   Point Group: c2    Number of degrees of freedom:    22


   Energy is  -1104.840591015

              Constraints and their Current Values
                                        Value     Constraint
   Dihedral:        4   5   7   9      160.000      160.000

 Attempting to Generate Delocalized Internal Coordinates

 21 Hessian modes will be used to form the next step
  Hessian Eigenvalues:
     0.045000    0.045000    0.045000    0.045002    0.045004    0.045013
     0.159937    0.159990    0.160000    0.221280    0.237833    0.249997
     0.296078    0.314672    0.357149    0.357543    0.360899    0.380793
     0.408411    0.470750    0.505998

 Minimum Search - Taking Simple RFO Step
 Searching for Lamda that Minimizes Along All modes
 Value Taken    Lamda =  -0.00025409
 Step Taken.  Stepsize is  0.025594

                             Maximum     Tolerance    Cnvgd?
         Gradient           0.006035      0.000300      NO
         Displacement       0.015665      0.001200      NO
         Energy change     *********      0.000001      NO


 New Cartesian Coordinates Obtained by Inverse Iteration

 Displacement from previous Coordinates is:  0.054067
 ----------------------------------------------------------------
             Standard Nuclear Orientation (Angstroms)
    I     Atom           X                Y                Z
 ----------------------------------------------------------------
    1      S       1.8489333664    -1.1935174091     0.2075848770
    2      C       3.2101921369    -0.1297714460     0.0454344291
    3      C       2.8165117601     1.1618715893    -0.1863164880
    4      C       1.3995254638     1.3052767129    -0.2487500699
    5      C       0.7167376740     0.1204431698    -0.0626722013
    6      H       0.8992386746     2.2468336412    -0.4472533381
    7      C      -0.7167376740    -0.1204431698    -0.0626722013
    8      S      -1.8489333664     1.1935174091     0.2075848770
    9      C      -1.3995254638    -1.3052767129    -0.2487500699
   10      C      -3.2101921369     0.1297714460     0.0454344291
   11      C      -2.8165117601    -1.1618715893    -0.1863164880
   12      H      -3.5120143621    -1.9831706414    -0.3173131092
   13      H       4.2140665667    -0.5229252899     0.1310400378
   14      H       3.5120143621     1.9831706414    -0.3173131092
   15      H      -4.2140665667     0.5229252899     0.1310400378
   16      H      -0.8992386746    -2.2468336412    -0.4472533381
 ----------------------------------------------------------------
 Molecular Point Group                 C2    NOp =  2
 Largest Abelian Subgroup              C2    NOp =  2
 Nuclear Repulsion Energy =   628.9106705085 hartrees
 There are       43 alpha and       43 beta electrons
 Applying Cartesian multipole field
    Component          Value
    ---------          -----
     (2,0,0)        1.00000E-11
     (0,2,0)        2.00000E-11
     (0,0,2)       -3.00000E-11
 Nucleus-field energy     =     0.0000000219 hartrees
 Requested basis set is 6-31++G(d,p)
 There are 76 shells and 234 basis functions
 A cutoff of  1.0D-12 yielded   2529 shell pairs
 There are     24905 function pairs
 Smallest overlap matrix eigenvalue = 9.55E-07
 Linear dependence detected in AO basis
 Number of orthogonalized atomic orbitals = 233
 Maximum deviation from orthogonality = 5.892E-11
 Guess MOs from SCF MO coefficient file
 Reading MOs from coefficient file
 Reading MOs from coefficient file
 A restricted hybrid HF-DFT SCF calculation will be
 performed using Relaxed Constraint Minimization + Pulay DIIS
 Exchange:     0.2000 Hartree-Fock + 0.0800 Slater + 0.7200 B88
 Correlation:  0.1900 VWN1RPA + 0.8100 LYP
 Using SG-1 standard quadrature grid
 SCF converges when DIIS error is below 1.0E-08
 Geometry optimization detected.  Setting ReadMinima to 0
 Setting SaveMinima to 0
 Inaccurate integrated density:
   Number of electrons =    86
   Numerical integral  =    85.972362576698
   Relative error      =    -0.0321365387 %
 Inaccurate integrated density:
   Number of electrons =    86
   Numerical integral  =    85.972362576698
   Relative error      =    -0.0321365387 %
 ---------------------------------------
  Cycle       Energy         DIIS Error
 ---------------------------------------
    1   -1104.8168227942      2.37E-04 Done RCA. Switching to DIIS
    2   -1104.8406406751      8.86E-05
    3   -1104.8405247745      1.53E-04
    4   -1104.8407034215      3.05E-05
    5   -1104.8407098632      5.83E-06
    6   -1104.8407100964      2.32E-06
    7   -1104.8407101394      6.55E-07
    8   -1104.8407101422      1.64E-07
    9   -1104.8407101424      3.02E-08
   10   -1104.8407101424      1.51E-08
   11   -1104.8407101424      1.88E-09 Convergence criterion met
 ---------------------------------------
 SCF time:  CPU 6.25 s  wall 5.52 s
 SCF   energy in the final basis set = -1104.8407101424
 Total energy in the final basis set = -1104.8407101424
 
 --------------------------------------------------------------
             Orbital Energies (a.u.) and Symmetries
 --------------------------------------------------------------
 
 Alpha MOs, Restricted
 -- Occupied --                  
-88.920 -88.920 -10.239 -10.239 -10.225 -10.225 -10.205 -10.205
  1 A     1 B     2 A     2 B     3 B     3 A     4 A     4 B                  
-10.204 -10.204  -7.979  -7.979  -5.943  -5.943  -5.940  -5.940
  5 B     5 A     6 A     6 B     7 A     7 B     8 B     8 A                  
 -5.936  -5.936  -0.900  -0.878  -0.772  -0.749  -0.737  -0.706
  9 B     9 A    10 A    10 B    11 A    11 B    12 A    12 B                  
 -0.604  -0.581  -0.552  -0.534  -0.527  -0.478  -0.420  -0.418
 13 A    13 B    14 A    14 B    15 A    15 B    16 B    16 A                  
 -0.408  -0.405  -0.401  -0.378  -0.374  -0.357  -0.344  -0.281
 17 A    17 B    18 A    19 A    18 B    19 B    20 A    21 A                  
 -0.264  -0.259  -0.213
 20 B    22 A    21 B                                                          
 -- Virtual --                   
 -0.058  -0.006  -0.004  -0.002   0.007   0.009   0.017   0.022
 23 A    24 A    22 B    23 B    25 A    24 B    25 B    26 A                  
  0.032   0.035   0.038   0.048   0.049   0.053   0.060   0.064
 27 A    28 A    26 B    29 A    30 A    27 B    28 B    29 B                  
  0.074   0.083   0.085   0.096   0.098   0.102   0.107   0.109
 30 B    31 A    31 B    32 A    32 B    33 A    34 A    35 A                  
  0.120   0.124   0.127   0.132   0.132   0.140   0.140   0.141
 33 B    34 B    36 A    37 A    35 B    36 B    38 A    37 B                  
  0.147   0.157   0.161   0.165   0.169   0.173   0.181   0.186
 39 A    38 B    39 B    40 A    41 A    40 B    42 A    41 B                  
  0.186   0.202   0.207   0.211   0.218   0.218   0.222   0.225
 43 A    42 B    43 B    44 A    44 B    45 A    46 A    45 B                  
  0.251   0.254   0.256   0.266   0.266   0.278   0.284   0.301
 46 B    47 A    47 B    48 B    48 A    49 A    49 B    50 A                  
  0.317   0.320   0.344   0.350   0.351   0.373   0.390   0.405
 51 A    50 B    52 A    53 A    51 B    52 B    54 A    53 B                  
  0.454   0.465   0.513   0.517   0.542   0.550   0.566   0.584
 54 B    55 A    55 B    56 A    57 A    56 B    57 B    58 A                  
  0.610   0.614   0.629   0.649   0.657   0.659   0.670   0.681
 59 A    58 B    60 A    59 B    60 B    61 A    61 B    62 A                  
  0.699   0.718   0.726   0.727   0.741   0.749   0.774   0.785
 63 A    62 B    64 A    63 B    64 B    65 A    66 A    65 B                  
  0.818   0.819   0.826   0.847   0.865   0.920   0.939   0.947
 66 B    67 A    67 B    68 A    69 A    68 B    70 A    69 B                  
  0.953   0.955   0.960   0.967   0.982   0.992   0.994   1.018
 70 B    71 A    72 A    71 B    72 B    73 A    73 B    74 B                  
  1.030   1.041   1.067   1.096   1.106   1.117   1.146   1.158
 74 A    75 A    76 A    77 A    75 B    76 B    77 B    78 A                  
  1.169   1.179   1.206   1.249   1.260   1.317   1.341   1.347
 78 B    79 A    80 A    81 A    79 B    80 B    82 A    81 B                  
  1.352   1.357   1.373   1.465   1.468   1.512   1.532   1.583
 83 A    82 B    84 A    83 B    85 A    84 B    85 B    86 A                  
  1.679   1.692   1.731   1.802   1.862   1.871   1.884   1.916
 87 A    86 B    88 A    89 A    90 A    87 B    88 B    91 A                  
  1.921   1.938   1.962   2.007   2.047   2.069   2.085   2.116
 89 B    92 A    90 B    93 A    91 B    94 A    92 B    93 B                  
  2.166   2.178   2.180   2.225   2.244   2.253   2.335   2.362
 95 A    96 A    94 B    97 A    95 B    96 B    98 A    97 B                  
  2.366   2.417   2.453   2.455   2.466   2.491   2.507   2.528
 99 A    98 B    99 B   100 A   101 A   100 B   102 A   103 A                  
  2.533   2.565   2.585   2.607   2.666   2.691   2.718   2.748
101 B   102 B   104 A   103 B   105 A   106 A   104 B   105 B                  
  2.858   2.869   2.925   2.934   3.144   3.204   3.267   3.274
107 A   106 B   108 A   107 B   108 B   109 A   109 B   110 A                  
  3.399   3.426   3.720   3.742   3.973   3.980   4.239   4.295
111 A   110 B   112 A   111 B   112 B   113 A   114 A   113 B                  
  4.306   4.319   4.410   4.533   4.658   4.714
115 A   114 B   116 A   115 B   117 A   116 B                                  
 
 Beta MOs, Restricted
 -- Occupied --                  
-88.920 -88.920 -10.239 -10.239 -10.225 -10.225 -10.205 -10.205
  1 A     1 B     2 A     2 B     3 B     3 A     4 A     4 B                  
-10.204 -10.204  -7.979  -7.979  -5.943  -5.943  -5.940  -5.940
  5 B     5 A     6 A     6 B     7 A     7 B     8 B     8 A                  
 -5.936  -5.936  -0.900  -0.878  -0.772  -0.749  -0.737  -0.706
  9 B     9 A    10 A    10 B    11 A    11 B    12 A    12 B                  
 -0.604  -0.581  -0.552  -0.534  -0.527  -0.478  -0.420  -0.418
 13 A    13 B    14 A    14 B    15 A    15 B    16 B    16 A                  
 -0.408  -0.405  -0.401  -0.378  -0.374  -0.357  -0.344  -0.281
 17 A    17 B    18 A    19 A    18 B    19 B    20 A    21 A                  
 -0.264  -0.259  -0.213
 20 B    22 A    21 B                                                          
 -- Virtual --                   
 -0.058  -0.006  -0.004  -0.002   0.007   0.009   0.017   0.022
 23 A    24 A    22 B    23 B    25 A    24 B    25 B    26 A                  
  0.032   0.035   0.038   0.048   0.049   0.053   0.060   0.064
 27 A    28 A    26 B    29 A    30 A    27 B    28 B    29 B                  
  0.074   0.083   0.085   0.096   0.098   0.102   0.107   0.109
 30 B    31 A    31 B    32 A    32 B    33 A    34 A    35 A                  
  0.120   0.124   0.127   0.132   0.132   0.140   0.140   0.141
 33 B    34 B    36 A    37 A    35 B    36 B    38 A    37 B                  
  0.147   0.157   0.161   0.165   0.169   0.173   0.181   0.186
 39 A    38 B    39 B    40 A    41 A    40 B    42 A    41 B                  
  0.186   0.202   0.207   0.211   0.218   0.218   0.222   0.225
 43 A    42 B    43 B    44 A    44 B    45 A    46 A    45 B                  
  0.251   0.254   0.256   0.266   0.266   0.278   0.284   0.301
 46 B    47 A    47 B    48 B    48 A    49 A    49 B    50 A                  
  0.317   0.320   0.344   0.350   0.351   0.373   0.390   0.405
 51 A    50 B    52 A    53 A    51 B    52 B    54 A    53 B                  
  0.454   0.465   0.513   0.517   0.542   0.550   0.566   0.584
 54 B    55 A    55 B    56 A    57 A    56 B    57 B    58 A                  
  0.610   0.614   0.629   0.649   0.657   0.659   0.670   0.681
 59 A    58 B    60 A    59 B    60 B    61 A    61 B    62 A                  
  0.699   0.718   0.726   0.727   0.741   0.749   0.774   0.785
 63 A    62 B    64 A    63 B    64 B    65 A    66 A    65 B                  
  0.818   0.819   0.826   0.847   0.865   0.920   0.939   0.947
 66 B    67 A    67 B    68 A    69 A    68 B    70 A    69 B                  
  0.953   0.955   0.960   0.967   0.982   0.992   0.994   1.018
 70 B    71 A    72 A    71 B    72 B    73 A    73 B    74 B                  
  1.030   1.041   1.067   1.096   1.106   1.117   1.146   1.158
 74 A    75 A    76 A    77 A    75 B    76 B    77 B    78 A                  
  1.169   1.179   1.206   1.249   1.260   1.317   1.341   1.347
 78 B    79 A    80 A    81 A    79 B    80 B    82 A    81 B                  
  1.352   1.357   1.373   1.465   1.468   1.512   1.532   1.583
 83 A    82 B    84 A    83 B    85 A    84 B    85 B    86 A                  
  1.679   1.692   1.731   1.802   1.862   1.871   1.884   1.916
 87 A    86 B    88 A    89 A    90 A    87 B    88 B    91 A                  
  1.921   1.938   1.962   2.007   2.047   2.069   2.085   2.116
 89 B    92 A    90 B    93 A    91 B    94 A    92 B    93 B                  
  2.166   2.178   2.180   2.225   2.244   2.253   2.335   2.362
 95 A    96 A    94 B    97 A    95 B    96 B    98 A    97 B                  
  2.366   2.417   2.453   2.455   2.466   2.491   2.507   2.528
 99 A    98 B    99 B   100 A   101 A   100 B   102 A   103 A                  
  2.533   2.565   2.585   2.607   2.666   2.691   2.718   2.748
101 B   102 B   104 A   103 B   105 A   106 A   104 B   105 B                  
  2.858   2.869   2.925   2.934   3.144   3.204   3.267   3.274
107 A   106 B   108 A   107 B   108 B   109 A   109 B   110 A                  
  3.399   3.426   3.720   3.742   3.973   3.980   4.239   4.295
111 A   110 B   112 A   111 B   112 B   113 A   114 A   113 B                  
  4.306   4.319   4.410   4.533   4.658   4.714
115 A   114 B   116 A   115 B   117 A   116 B                                  
 --------------------------------------------------------------
 
          Ground-State Mulliken Net Atomic Charges

     Atom                 Charge (a.u.)
  ----------------------------------------
      1 S                    -0.104779
      2 C                     0.015883
      3 C                    -0.354492
      4 C                     0.370221
      5 C                    -0.366514
      6 H                     0.123054
      7 C                    -0.366514
      8 S                    -0.104779
      9 C                     0.370221
     10 C                     0.015883
     11 C                    -0.354492
     12 H                     0.119958
     13 H                     0.196668
     14 H                     0.119958
     15 H                     0.196668
     16 H                     0.123054
  ----------------------------------------
  Sum of atomic charges =    -0.000000

 -----------------------------------------------------------------
                    Cartesian Multipole Moments
 -----------------------------------------------------------------
    Charge (ESU x 10^10)
                 0.0000
    Dipole Moment (Debye)
         X       0.0000      Y      -0.0000      Z      -0.2288
       Tot       0.2288
    Quadrupole Moments (Debye-Ang)
        XX     -61.1334     XY       1.5960     YY     -68.3246
        XZ      -0.0000     YZ       0.0000     ZZ     -78.5759
    Octopole Moments (Debye-Ang^2)
       XXX       0.0000    XXY      -0.0000    XYY       0.0000
       YYY      -0.0000    XXZ       1.9934    XYZ      -4.5943
       YYZ      -3.2169    XZZ      -0.0000    YZZ       0.0000
       ZZZ       2.0468
    Hexadecapole Moments (Debye-Ang^3)
      XXXX   -1889.7618   XXXY     -23.3313   XXYY    -421.5350
      XYYY      17.2266   YYYY    -554.7226   XXXZ      -0.0000
      XXYZ      -0.0000   XYYZ       0.0000   YYYZ       0.0000
      XXZZ    -426.8472   XYZZ      -7.2207   YYZZ    -123.9602
      XZZZ      -0.0000   YZZZ       0.0000   ZZZZ    -120.5614
 -----------------------------------------------------------------
 Calculating analytic gradient of the SCF energy
 Gradient of SCF Energy
            1           2           3           4           5           6
    1   0.0000040   0.0000590   0.0002902  -0.0001450   0.0002197  -0.0000467
    2  -0.0000967  -0.0000589   0.0000488   0.0001009   0.0000631   0.0000499
    3  -0.0000180   0.0000056  -0.0000113   0.0003881  -0.0002343  -0.0001087
            7           8           9          10          11          12
    1  -0.0002197  -0.0000040   0.0001450  -0.0000590  -0.0002902  -0.0000922
    2  -0.0000631   0.0000967  -0.0001009   0.0000589  -0.0000488  -0.0000820
    3  -0.0002343  -0.0000180   0.0003881   0.0000056  -0.0000113  -0.0000204
           13          14          15          16
    1   0.0000670   0.0000922  -0.0000670   0.0000467
    2  -0.0000820   0.0000820   0.0000820  -0.0000499
    3  -0.0000009  -0.0000204  -0.0000009  -0.0001087
 Max gradient component =       3.881E-04
 RMS gradient           =       1.347E-04
 Gradient time:  CPU 1.99 s  wall 2.00 s
 Geometry Optimization Parameters
   NAtoms,    NIC,     NZ,  NCons,   NDum,   NFix, NCnnct, MaxDiis
       16     111       0       1       0       0       0       0

 Cartesian Hessian Update
 Hessian Updated using BFGS Update


** CONSTRAINED OPTIMIZATION IN DELOCALIZED INTERNAL COORDINATES **
   Searching for a Minimum

   Optimization Cycle:   2

                       Coordinates (Angstroms)
     ATOM                X               Y               Z
      1  S         1.8489333664   -1.1935174091    0.2075848770
      2  C         3.2101921369   -0.1297714460    0.0454344291
      3  C         2.8165117601    1.1618715893   -0.1863164880
      4  C         1.3995254638    1.3052767129   -0.2487500699
      5  C         0.7167376740    0.1204431698   -0.0626722013
      6  H         0.8992386746    2.2468336412   -0.4472533381
      7  C        -0.7167376740   -0.1204431698   -0.0626722013
      8  S        -1.8489333664    1.1935174091    0.2075848770
      9  C        -1.3995254638   -1.3052767129   -0.2487500699
     10  C        -3.2101921369    0.1297714460    0.0454344291
     11  C        -2.8165117601   -1.1618715893   -0.1863164880
     12  H        -3.5120143621   -1.9831706414   -0.3173131092
     13  H         4.2140665667   -0.5229252899    0.1310400378
     14  H         3.5120143621    1.9831706414   -0.3173131092
     15  H        -4.2140665667    0.5229252899    0.1310400378
     16  H        -0.8992386746   -2.2468336412   -0.4472533381
   Point Group: c2    Number of degrees of freedom:    22


   Energy is  -1104.840710142

              Constraints and their Current Values
                                        Value     Constraint
   Dihedral:        4   5   7   9      160.000      160.000
 Hessian Updated using BFGS Update

 21 Hessian modes will be used to form the next step
  Hessian Eigenvalues:
     0.044628    0.045000    0.045000    0.045001    0.045004    0.045049
     0.159583    0.159968    0.159999    0.221429    0.238125    0.249353
     0.296552    0.314589    0.357124    0.358527    0.360988    0.384458
     0.425726    0.472341    0.514448

 Minimum Search - Taking Simple RFO Step
 Searching for Lamda that Minimizes Along All modes
 Value Taken    Lamda =  -0.00000273
 Step Taken.  Stepsize is  0.003914

                             Maximum     Tolerance    Cnvgd?
         Gradient           0.000695      0.000300      NO
         Displacement       0.001699      0.001200      NO
         Energy change     -0.000119      0.000001      NO


 New Cartesian Coordinates Obtained by Inverse Iteration

 Displacement from previous Coordinates is:  0.007624
 ----------------------------------------------------------------
             Standard Nuclear Orientation (Angstroms)
    I     Atom           X                Y                Z
 ----------------------------------------------------------------
    1      S       1.8482462306    -1.1938787683     0.2075221641
    2      C       3.2092429236    -0.1299553132     0.0456935114
    3      C       2.8154841138     1.1614783165    -0.1863766478
    4      C       1.3989866733     1.3048677283    -0.2494548710
    5      C       0.7164428188     0.1201052046    -0.0633222128
    6      H       0.8988348845     2.2464922978    -0.4473613629
    7      C      -0.7164428188    -0.1201052046    -0.0633222128
    8      S      -1.8482462306     1.1938787683     0.2075221641
    9      C      -1.3989866733    -1.3048677283    -0.2494548710
   10      C      -3.2092429236     0.1299553132     0.0456935114
   11      C      -2.8154841138    -1.1614783165    -0.1863766478
   12      H      -3.5108618936    -1.9827443336    -0.3168799395
   13      H       4.2131406652    -0.5226199556     0.1319334961
   14      H       3.5108618936     1.9827443336    -0.3168799395
   15      H      -4.2131406652     0.5226199556     0.1319334961
   16      H      -0.8988348845    -2.2464922978    -0.4473613629
 ----------------------------------------------------------------
 Molecular Point Group                 C2    NOp =  2
 Largest Abelian Subgroup              C2    NOp =  2
 Nuclear Repulsion Energy =   629.0304839936 hartrees
 There are       43 alpha and       43 beta electrons
 Applying Cartesian multipole field
    Component          Value
    ---------          -----
     (2,0,0)        1.00000E-11
     (0,2,0)        2.00000E-11
     (0,0,2)       -3.00000E-11
 Nucleus-field energy     =     0.0000000219 hartrees
 Requested basis set is 6-31++G(d,p)
 There are 76 shells and 234 basis functions
 A cutoff of  1.0D-12 yielded   2529 shell pairs
 There are     24905 function pairs
 Smallest overlap matrix eigenvalue = 9.51E-07
 Linear dependence detected in AO basis
 Number of orthogonalized atomic orbitals = 233
 Maximum deviation from orthogonality = 3.765E-11
 Guess MOs from SCF MO coefficient file
 Reading MOs from coefficient file
 Reading MOs from coefficient file
 A restricted hybrid HF-DFT SCF calculation will be
 performed using Relaxed Constraint Minimization + Pulay DIIS
 Exchange:     0.2000 Hartree-Fock + 0.0800 Slater + 0.7200 B88
 Correlation:  0.1900 VWN1RPA + 0.8100 LYP
 Using SG-1 standard quadrature grid
 SCF converges when DIIS error is below 1.0E-08
 Geometry optimization detected.  Setting ReadMinima to 0
 Setting SaveMinima to 0
 ---------------------------------------
  Cycle       Energy         DIIS Error
 ---------------------------------------
    1   -1104.8425855196      2.47E-05 Done RCA. Switching to DIIS
    2   -1104.8407109116      9.11E-06
    3   -1104.8407089239      1.86E-05
    4   -1104.8407115874      2.96E-06
    5   -1104.8407116483      4.53E-07
    6   -1104.8407116496      2.30E-07
    7   -1104.8407116500      5.16E-08
    8   -1104.8407116500      2.50E-08
    9   -1104.8407116500      3.80E-09 Convergence criterion met
 ---------------------------------------
 SCF time:  CPU 5.18 s  wall 4.52 s
 SCF   energy in the final basis set = -1104.8407116500
 Total energy in the final basis set = -1104.8407116500
 
 --------------------------------------------------------------
             Orbital Energies (a.u.) and Symmetries
 --------------------------------------------------------------
 
 Alpha MOs, Restricted
 -- Occupied --                  
-88.920 -88.920 -10.239 -10.239 -10.225 -10.225 -10.205 -10.205
  1 A     1 B     2 A     2 B     3 B     3 A     4 A     4 B                  
-10.203 -10.203  -7.979  -7.979  -5.943  -5.943  -5.940  -5.940
  5 B     5 A     6 A     6 B     7 A     7 B     8 B     8 A                  
 -5.936  -5.936  -0.900  -0.878  -0.772  -0.749  -0.737  -0.706
  9 B     9 A    10 A    10 B    11 A    11 B    12 A    12 B                  
 -0.604  -0.581  -0.552  -0.534  -0.527  -0.478  -0.420  -0.418
 13 A    13 B    14 A    14 B    15 A    15 B    16 B    16 A                  
 -0.408  -0.405  -0.401  -0.378  -0.374  -0.357  -0.344  -0.281
 17 A    17 B    18 A    19 A    18 B    19 B    20 A    21 A                  
 -0.264  -0.259  -0.213
 20 B    22 A    21 B                                                          
 -- Virtual --                   
 -0.058  -0.006  -0.004  -0.002   0.007   0.009   0.017   0.022
 23 A    24 A    22 B    23 B    25 A    24 B    25 B    26 A                  
  0.032   0.035   0.038   0.048   0.049   0.053   0.060   0.064
 27 A    28 A    26 B    29 A    30 A    27 B    28 B    29 B                  
  0.074   0.083   0.085   0.096   0.098   0.102   0.107   0.109
 30 B    31 A    31 B    32 A    32 B    33 A    34 A    35 A                  
  0.120   0.124   0.127   0.132   0.132   0.140   0.140   0.141
 33 B    34 B    36 A    37 A    35 B    36 B    38 A    37 B                  
  0.147   0.157   0.161   0.165   0.169   0.173   0.180   0.186
 39 A    38 B    39 B    40 A    41 A    40 B    42 A    41 B                  
  0.186   0.202   0.207   0.211   0.218   0.218   0.222   0.225
 43 A    42 B    43 B    44 A    44 B    45 A    46 A    45 B                  
  0.251   0.254   0.256   0.266   0.266   0.278   0.284   0.301
 46 B    47 A    47 B    48 B    48 A    49 A    49 B    50 A                  
  0.317   0.320   0.344   0.350   0.351   0.373   0.391   0.406
 51 A    50 B    52 A    53 A    51 B    52 B    54 A    53 B                  
  0.454   0.465   0.513   0.517   0.542   0.550   0.566   0.585
 54 B    55 A    55 B    56 A    57 A    56 B    57 B    58 A                  
  0.610   0.614   0.629   0.649   0.657   0.659   0.670   0.681
 59 A    58 B    60 A    59 B    60 B    61 A    61 B    62 A                  
  0.700   0.718   0.726   0.727   0.741   0.749   0.774   0.785
 63 A    62 B    64 A    63 B    64 B    65 A    66 A    65 B                  
  0.818   0.819   0.826   0.847   0.866   0.920   0.939   0.947
 66 B    67 A    67 B    68 A    69 A    68 B    70 A    69 B                  
  0.953   0.955   0.960   0.967   0.982   0.992   0.994   1.018
 70 B    71 A    72 A    71 B    72 B    73 A    73 B    74 B                  
  1.030   1.041   1.067   1.096   1.106   1.117   1.146   1.158
 74 A    75 A    76 A    77 A    75 B    76 B    77 B    78 A                  
  1.169   1.179   1.206   1.249   1.260   1.317   1.341   1.347
 78 B    79 A    80 A    81 A    79 B    80 B    82 A    81 B                  
  1.352   1.357   1.373   1.466   1.467   1.511   1.532   1.583
 83 A    82 B    84 A    83 B    85 A    84 B    85 B    86 A                  
  1.679   1.692   1.731   1.802   1.862   1.871   1.885   1.916
 87 A    86 B    88 A    89 A    90 A    87 B    88 B    91 A                  
  1.922   1.938   1.962   2.007   2.048   2.070   2.085   2.116
 89 B    92 A    90 B    93 A    91 B    94 A    92 B    93 B                  
  2.166   2.178   2.180   2.225   2.244   2.254   2.335   2.362
 95 A    96 A    94 B    97 A    95 B    96 B    98 A    97 B                  
  2.366   2.417   2.453   2.456   2.466   2.491   2.507   2.528
 99 A    98 B    99 B   100 A   101 A   100 B   102 A   103 A                  
  2.533   2.565   2.585   2.608   2.666   2.691   2.719   2.748
101 B   102 B   104 A   103 B   105 A   106 A   104 B   105 B                  
  2.858   2.869   2.925   2.934   3.145   3.205   3.267   3.274
107 A   106 B   108 A   107 B   108 B   109 A   109 B   110 A                  
  3.399   3.427   3.721   3.742   3.973   3.980   4.239   4.295
111 A   110 B   112 A   111 B   112 B   113 A   114 A   113 B                  
  4.306   4.319   4.410   4.533   4.658   4.715
115 A   114 B   116 A   115 B   117 A   116 B                                  
 
 Beta MOs, Restricted
 -- Occupied --                  
-88.920 -88.920 -10.239 -10.239 -10.225 -10.225 -10.205 -10.205
  1 A     1 B     2 A     2 B     3 B     3 A     4 A     4 B                  
-10.203 -10.203  -7.979  -7.979  -5.943  -5.943  -5.940  -5.940
  5 B     5 A     6 A     6 B     7 A     7 B     8 B     8 A                  
 -5.936  -5.936  -0.900  -0.878  -0.772  -0.749  -0.737  -0.706
  9 B     9 A    10 A    10 B    11 A    11 B    12 A    12 B                  
 -0.604  -0.581  -0.552  -0.534  -0.527  -0.478  -0.420  -0.418
 13 A    13 B    14 A    14 B    15 A    15 B    16 B    16 A                  
 -0.408  -0.405  -0.401  -0.378  -0.374  -0.357  -0.344  -0.281
 17 A    17 B    18 A    19 A    18 B    19 B    20 A    21 A                  
 -0.264  -0.259  -0.213
 20 B    22 A    21 B                                                          
 -- Virtual --                   
 -0.058  -0.006  -0.004  -0.002   0.007   0.009   0.017   0.022
 23 A    24 A    22 B    23 B    25 A    24 B    25 B    26 A                  
  0.032   0.035   0.038   0.048   0.049   0.053   0.060   0.064
 27 A    28 A    26 B    29 A    30 A    27 B    28 B    29 B                  
  0.074   0.083   0.085   0.096   0.098   0.102   0.107   0.109
 30 B    31 A    31 B    32 A    32 B    33 A    34 A    35 A                  
  0.120   0.124   0.127   0.132   0.132   0.140   0.140   0.141
 33 B    34 B    36 A    37 A    35 B    36 B    38 A    37 B                  
  0.147   0.157   0.161   0.165   0.169   0.173   0.180   0.186
 39 A    38 B    39 B    40 A    41 A    40 B    42 A    41 B                  
  0.186   0.202   0.207   0.211   0.218   0.218   0.222   0.225
 43 A    42 B    43 B    44 A    44 B    45 A    46 A    45 B                  
  0.251   0.254   0.256   0.266   0.266   0.278   0.284   0.301
 46 B    47 A    47 B    48 B    48 A    49 A    49 B    50 A                  
  0.317   0.320   0.344   0.350   0.351   0.373   0.391   0.406
 51 A    50 B    52 A    53 A    51 B    52 B    54 A    53 B                  
  0.454   0.465   0.513   0.517   0.542   0.550   0.566   0.585
 54 B    55 A    55 B    56 A    57 A    56 B    57 B    58 A                  
  0.610   0.614   0.629   0.649   0.657   0.659   0.670   0.681
 59 A    58 B    60 A    59 B    60 B    61 A    61 B    62 A                  
  0.700   0.718   0.726   0.727   0.741   0.749   0.774   0.785
 63 A    62 B    64 A    63 B    64 B    65 A    66 A    65 B                  
  0.818   0.819   0.826   0.847   0.866   0.920   0.939   0.947
 66 B    67 A    67 B    68 A    69 A    68 B    70 A    69 B                  
  0.953   0.955   0.960   0.967   0.982   0.992   0.994   1.018
 70 B    71 A    72 A    71 B    72 B    73 A    73 B    74 B                  
  1.030   1.041   1.067   1.096   1.106   1.117   1.146   1.158
 74 A    75 A    76 A    77 A    75 B    76 B    77 B    78 A                  
  1.169   1.179   1.206   1.249   1.260   1.317   1.341   1.347
 78 B    79 A    80 A    81 A    79 B    80 B    82 A    81 B                  
  1.352   1.357   1.373   1.466   1.467   1.511   1.532   1.583
 83 A    82 B    84 A    83 B    85 A    84 B    85 B    86 A                  
  1.679   1.692   1.731   1.802   1.862   1.871   1.885   1.916
 87 A    86 B    88 A    89 A    90 A    87 B    88 B    91 A                  
  1.922   1.938   1.962   2.007   2.048   2.070   2.085   2.116
 89 B    92 A    90 B    93 A    91 B    94 A    92 B    93 B                  
  2.166   2.178   2.180   2.225   2.244   2.254   2.335   2.362
 95 A    96 A    94 B    97 A    95 B    96 B    98 A    97 B                  
  2.366   2.417   2.453   2.456   2.466   2.491   2.507   2.528
 99 A    98 B    99 B   100 A   101 A   100 B   102 A   103 A                  
  2.533   2.565   2.585   2.608   2.666   2.691   2.719   2.748
101 B   102 B   104 A   103 B   105 A   106 A   104 B   105 B                  
  2.858   2.869   2.925   2.934   3.145   3.205   3.267   3.274
107 A   106 B   108 A   107 B   108 B   109 A   109 B   110 A                  
  3.399   3.427   3.721   3.742   3.973   3.980   4.239   4.295
111 A   110 B   112 A   111 B   112 B   113 A   114 A   113 B                  
  4.306   4.319   4.410   4.533   4.658   4.715
115 A   114 B   116 A   115 B   117 A   116 B                                  
 --------------------------------------------------------------
 
          Ground-State Mulliken Net Atomic Charges

     Atom                 Charge (a.u.)
  ----------------------------------------
      1 S                    -0.104439
      2 C                     0.015614
      3 C                    -0.354097
      4 C                     0.369511
      5 C                    -0.366036
      6 H                     0.122976
      7 C                    -0.366036
      8 S                    -0.104439
      9 C                     0.369511
     10 C                     0.015614
     11 C                    -0.354097
     12 H                     0.119890
     13 H                     0.196581
     14 H                     0.119890
     15 H                     0.196581
     16 H                     0.122976
  ----------------------------------------
  Sum of atomic charges =     0.000000

 -----------------------------------------------------------------
                    Cartesian Multipole Moments
 -----------------------------------------------------------------
    Charge (ESU x 10^10)
                -0.0000
    Dipole Moment (Debye)
         X       0.0000      Y      -0.0000      Z      -0.2257
       Tot       0.2257
    Quadrupole Moments (Debye-Ang)
        XX     -61.1479     XY       1.5949     YY     -68.3196
        XZ      -0.0000     YZ       0.0000     ZZ     -78.5693
    Octopole Moments (Debye-Ang^2)
       XXX       0.0000    XXY       0.0000    XYY       0.0000
       YYY      -0.0000    XXZ       2.0494    XYZ      -4.5900
       YYZ      -3.1920    XZZ      -0.0000    YZZ       0.0000
       ZZZ       2.0870
    Hexadecapole Moments (Debye-Ang^3)
      XXXX   -1888.8158   XXXY     -23.1779   XXYY    -421.3333
      XYYY      17.3467   YYYY    -554.6608   XXXZ      -0.0000
      XXYZ       0.0000   XYYZ       0.0000   YYYZ      -0.0000
      XXZZ    -426.5648   XYZZ      -7.1706   YYZZ    -123.9472
      XZZZ      -0.0000   YZZZ       0.0000   ZZZZ    -120.5736
 -----------------------------------------------------------------
 Calculating analytic gradient of the SCF energy
 Gradient of SCF Energy
            1           2           3           4           5           6
    1  -0.0000100  -0.0000350   0.0000536  -0.0000657   0.0000813   0.0000053
    2  -0.0000949   0.0000135  -0.0000120   0.0000426   0.0000191   0.0000028
    3  -0.0000091  -0.0000146  -0.0000116   0.0003296  -0.0002378  -0.0000597
            7           8           9          10          11          12
    1  -0.0000813   0.0000100   0.0000657   0.0000350  -0.0000536   0.0000003
    2  -0.0000191   0.0000949  -0.0000426  -0.0000135   0.0000120  -0.0000021
    3  -0.0002378  -0.0000091   0.0003296  -0.0000146  -0.0000116   0.0000029
           13          14          15          16
    1   0.0000025  -0.0000003  -0.0000025  -0.0000053
    2  -0.0000394   0.0000021   0.0000394  -0.0000028
    3   0.0000002   0.0000029   0.0000002  -0.0000597
 Max gradient component =       3.296E-04
 RMS gradient           =       9.070E-05
 Gradient time:  CPU 1.99 s  wall 2.00 s
 Geometry Optimization Parameters
   NAtoms,    NIC,     NZ,  NCons,   NDum,   NFix, NCnnct, MaxDiis
       16     111       0       1       0       0       0       0

 Cartesian Hessian Update
 Hessian Updated using BFGS Update


** CONSTRAINED OPTIMIZATION IN DELOCALIZED INTERNAL COORDINATES **
   Searching for a Minimum

   Optimization Cycle:   3

                       Coordinates (Angstroms)
     ATOM                X               Y               Z
      1  S         1.8482462306   -1.1938787683    0.2075221641
      2  C         3.2092429236   -0.1299553132    0.0456935114
      3  C         2.8154841138    1.1614783165   -0.1863766478
      4  C         1.3989866733    1.3048677283   -0.2494548710
      5  C         0.7164428188    0.1201052046   -0.0633222128
      6  H         0.8988348845    2.2464922978   -0.4473613629
      7  C        -0.7164428188   -0.1201052046   -0.0633222128
      8  S        -1.8482462306    1.1938787683    0.2075221641
      9  C        -1.3989866733   -1.3048677283   -0.2494548710
     10  C        -3.2092429236    0.1299553132    0.0456935114
     11  C        -2.8154841138   -1.1614783165   -0.1863766478
     12  H        -3.5108618936   -1.9827443336   -0.3168799395
     13  H         4.2131406652   -0.5226199556    0.1319334961
     14  H         3.5108618936    1.9827443336   -0.3168799395
     15  H        -4.2131406652    0.5226199556    0.1319334961
     16  H        -0.8988348845   -2.2464922978   -0.4473613629
   Point Group: c2    Number of degrees of freedom:    22


   Energy is  -1104.840711650

              Constraints and their Current Values
                                        Value     Constraint
   Dihedral:        4   5   7   9      160.000      160.000
 Hessian Updated using BFGS Update

 21 Hessian modes will be used to form the next step
  Hessian Eigenvalues:
     0.036643    0.044994    0.045000    0.045001    0.045004    0.045094
     0.157426    0.159951    0.160361    0.219495    0.239915    0.254734
     0.295608    0.313869    0.356622    0.358461    0.360674    0.388766
     0.426495    0.482946    0.536034

 Minimum Search - Taking Simple RFO Step
 Searching for Lamda that Minimizes Along All modes
 Value Taken    Lamda =   0.00000000
 Step Taken.  Stepsize is  0.002644

                             Maximum     Tolerance    Cnvgd?
         Gradient           0.000088      0.000300     YES
         Displacement       0.001390      0.001200      NO
         Energy change     -0.000002      0.000001      NO


 New Cartesian Coordinates Obtained by Inverse Iteration

 Displacement from previous Coordinates is:  0.003341
 ----------------------------------------------------------------
             Standard Nuclear Orientation (Angstroms)
    I     Atom           X                Y                Z
 ----------------------------------------------------------------
    1      S       1.8482904395    -1.1937679491     0.2075395962
    2      C       3.2093414635    -0.1299257955     0.0459703451
    3      C       2.8154850872     1.1613795119    -0.1864344877
    4      C       1.3990862371     1.3046653477    -0.2500067468
    5      C       0.7164175137     0.1199564028    -0.0638569704
    6      H       0.8989756722     2.2463585618    -0.4474711849
    7      C      -0.7164175137    -0.1199564028    -0.0638569704
    8      S      -1.8482904395     1.1937679491     0.2075395962
    9      C      -1.3990862371    -1.3046653477    -0.2500067468
   10      C      -3.2093414635     0.1299257955     0.0459703451
   11      C      -2.8154850872    -1.1613795119    -0.1864344877
   12      H      -3.5108918173    -1.9826271939    -0.3166745352
   13      H       4.2132716806    -0.5223186608     0.1326881211
   14      H       3.5108918173     1.9826271939    -0.3166745352
   15      H      -4.2132716806     0.5223186608     0.1326881211
   16      H      -0.8989756722    -2.2463585618    -0.4474711849
 ----------------------------------------------------------------
 Molecular Point Group                 C2    NOp =  2
 Largest Abelian Subgroup              C2    NOp =  2
 Nuclear Repulsion Energy =   629.0404892383 hartrees
 There are       43 alpha and       43 beta electrons
 Applying Cartesian multipole field
    Component          Value
    ---------          -----
     (2,0,0)        1.00000E-11
     (0,2,0)        2.00000E-11
     (0,0,2)       -3.00000E-11
 Nucleus-field energy     =     0.0000000219 hartrees
 Requested basis set is 6-31++G(d,p)
 There are 76 shells and 234 basis functions
 A cutoff of  1.0D-12 yielded   2529 shell pairs
 There are     24905 function pairs
 Smallest overlap matrix eigenvalue = 9.52E-07
 Linear dependence detected in AO basis
 Number of orthogonalized atomic orbitals = 233
 Maximum deviation from orthogonality = 1.500E-11
 Guess MOs from SCF MO coefficient file
 Reading MOs from coefficient file
 Reading MOs from coefficient file
 A restricted hybrid HF-DFT SCF calculation will be
 performed using Relaxed Constraint Minimization + Pulay DIIS
 Exchange:     0.2000 Hartree-Fock + 0.0800 Slater + 0.7200 B88
 Correlation:  0.1900 VWN1RPA + 0.8100 LYP
 Using SG-1 standard quadrature grid
 SCF converges when DIIS error is below 1.0E-08
 Geometry optimization detected.  Setting ReadMinima to 0
 Setting SaveMinima to 0
 ---------------------------------------
  Cycle       Energy         DIIS Error
 ---------------------------------------
    1   -1104.8411316257      1.43E-05 Done RCA. Switching to DIIS
    2   -1104.8407117962      2.73E-06
    3   -1104.8407115676      6.19E-06
    4   -1104.8407118599      5.58E-07
    5   -1104.8407118620      1.53E-07
    6   -1104.8407118622      7.42E-08
    7   -1104.8407118622      1.81E-08
    8   -1104.8407118622      8.30E-09 Convergence criterion met
 ---------------------------------------
 SCF time:  CPU 4.62 s  wall 4.03 s
 SCF   energy in the final basis set = -1104.8407118622
 Total energy in the final basis set = -1104.8407118622
 
 --------------------------------------------------------------
             Orbital Energies (a.u.) and Symmetries
 --------------------------------------------------------------
 
 Alpha MOs, Restricted
 -- Occupied --                  
-88.920 -88.920 -10.239 -10.239 -10.225 -10.225 -10.205 -10.205
  1 A     1 B     2 A     2 B     3 B     3 A     4 A     4 B                  
-10.203 -10.203  -7.979  -7.979  -5.943  -5.943  -5.940  -5.940
  5 B     5 A     6 A     6 B     7 A     7 B     8 B     8 A                  
 -5.936  -5.936  -0.900  -0.878  -0.772  -0.749  -0.737  -0.706
  9 B     9 A    10 A    10 B    11 A    11 B    12 A    12 B                  
 -0.604  -0.581  -0.552  -0.534  -0.527  -0.478  -0.420  -0.418
 13 A    13 B    14 A    14 B    15 A    15 B    16 B    16 A                  
 -0.408  -0.405  -0.401  -0.378  -0.374  -0.357  -0.344  -0.281
 17 A    17 B    18 A    19 A    18 B    19 B    20 A    21 A                  
 -0.264  -0.259  -0.213
 20 B    22 A    21 B                                                          
 -- Virtual --                   
 -0.058  -0.006  -0.004  -0.002   0.007   0.009   0.017   0.022
 23 A    24 A    22 B    23 B    25 A    24 B    25 B    26 A                  
  0.032   0.035   0.038   0.048   0.049   0.053   0.060   0.064
 27 A    28 A    26 B    29 A    30 A    27 B    28 B    29 B                  
  0.074   0.083   0.085   0.096   0.098   0.102   0.107   0.109
 30 B    31 A    31 B    32 A    32 B    33 A    34 A    35 A                  
  0.120   0.124   0.127   0.132   0.132   0.140   0.140   0.141
 33 B    34 B    36 A    37 A    35 B    36 B    38 A    37 B                  
  0.147   0.157   0.161   0.165   0.169   0.173   0.180   0.186
 39 A    38 B    39 B    40 A    41 A    40 B    42 A    41 B                  
  0.186   0.202   0.207   0.211   0.218   0.218   0.222   0.225
 43 A    42 B    43 B    44 A    44 B    45 A    46 A    45 B                  
  0.251   0.254   0.257   0.266   0.266   0.278   0.284   0.301
 46 B    47 A    47 B    48 B    48 A    49 A    49 B    50 A                  
  0.317   0.320   0.344   0.350   0.351   0.373   0.391   0.406
 51 A    50 B    52 A    53 A    51 B    52 B    54 A    53 B                  
  0.454   0.465   0.513   0.517   0.542   0.550   0.566   0.585
 54 B    55 A    55 B    56 A    57 A    56 B    57 B    58 A                  
  0.610   0.614   0.629   0.649   0.657   0.659   0.670   0.681
 59 A    58 B    60 A    59 B    60 B    61 A    61 B    62 A                  
  0.699   0.718   0.726   0.727   0.741   0.749   0.774   0.785
 63 A    62 B    64 A    63 B    64 B    65 A    66 A    65 B                  
  0.818   0.819   0.826   0.847   0.866   0.920   0.939   0.948
 66 B    67 A    67 B    68 A    69 A    68 B    70 A    69 B                  
  0.953   0.955   0.960   0.967   0.982   0.992   0.994   1.018
 70 B    71 A    72 A    71 B    72 B    73 A    73 B    74 B                  
  1.030   1.041   1.067   1.096   1.106   1.117   1.146   1.158
 74 A    75 A    76 A    77 A    75 B    76 B    77 B    78 A                  
  1.169   1.179   1.206   1.249   1.260   1.317   1.341   1.347
 78 B    79 A    80 A    81 A    79 B    80 B    82 A    81 B                  
  1.351   1.357   1.373   1.466   1.467   1.511   1.532   1.583
 83 A    82 B    84 A    83 B    85 A    84 B    85 B    86 A                  
  1.679   1.692   1.731   1.802   1.862   1.871   1.885   1.916
 87 A    86 B    88 A    89 A    90 A    87 B    88 B    91 A                  
  1.922   1.938   1.963   2.007   2.048   2.069   2.085   2.116
 89 B    92 A    90 B    93 A    91 B    94 A    92 B    93 B                  
  2.166   2.178   2.180   2.225   2.244   2.254   2.335   2.362
 95 A    96 A    94 B    97 A    95 B    96 B    98 A    97 B                  
  2.366   2.417   2.453   2.456   2.466   2.492   2.507   2.528
 99 A    98 B    99 B   100 A   101 A   100 B   102 A   103 A                  
  2.533   2.565   2.585   2.608   2.666   2.692   2.719   2.748
101 B   102 B   104 A   103 B   105 A   106 A   104 B   105 B                  
  2.858   2.870   2.925   2.934   3.145   3.205   3.267   3.274
107 A   106 B   108 A   107 B   108 B   109 A   109 B   110 A                  
  3.399   3.427   3.721   3.742   3.973   3.980   4.239   4.295
111 A   110 B   112 A   111 B   112 B   113 A   114 A   113 B                  
  4.306   4.319   4.410   4.533   4.658   4.715
115 A   114 B   116 A   115 B   117 A   116 B                                  
 
 Beta MOs, Restricted
 -- Occupied --                  
-88.920 -88.920 -10.239 -10.239 -10.225 -10.225 -10.205 -10.205
  1 A     1 B     2 A     2 B     3 B     3 A     4 A     4 B                  
-10.203 -10.203  -7.979  -7.979  -5.943  -5.943  -5.940  -5.940
  5 B     5 A     6 A     6 B     7 A     7 B     8 B     8 A                  
 -5.936  -5.936  -0.900  -0.878  -0.772  -0.749  -0.737  -0.706
  9 B     9 A    10 A    10 B    11 A    11 B    12 A    12 B                  
 -0.604  -0.581  -0.552  -0.534  -0.527  -0.478  -0.420  -0.418
 13 A    13 B    14 A    14 B    15 A    15 B    16 B    16 A                  
 -0.408  -0.405  -0.401  -0.378  -0.374  -0.357  -0.344  -0.281
 17 A    17 B    18 A    19 A    18 B    19 B    20 A    21 A                  
 -0.264  -0.259  -0.213
 20 B    22 A    21 B                                                          
 -- Virtual --                   
 -0.058  -0.006  -0.004  -0.002   0.007   0.009   0.017   0.022
 23 A    24 A    22 B    23 B    25 A    24 B    25 B    26 A                  
  0.032   0.035   0.038   0.048   0.049   0.053   0.060   0.064
 27 A    28 A    26 B    29 A    30 A    27 B    28 B    29 B                  
  0.074   0.083   0.085   0.096   0.098   0.102   0.107   0.109
 30 B    31 A    31 B    32 A    32 B    33 A    34 A    35 A                  
  0.120   0.124   0.127   0.132   0.132   0.140   0.140   0.141
 33 B    34 B    36 A    37 A    35 B    36 B    38 A    37 B                  
  0.147   0.157   0.161   0.165   0.169   0.173   0.180   0.186
 39 A    38 B    39 B    40 A    41 A    40 B    42 A    41 B                  
  0.186   0.202   0.207   0.211   0.218   0.218   0.222   0.225
 43 A    42 B    43 B    44 A    44 B    45 A    46 A    45 B                  
  0.251   0.254   0.257   0.266   0.266   0.278   0.284   0.301
 46 B    47 A    47 B    48 B    48 A    49 A    49 B    50 A                  
  0.317   0.320   0.344   0.350   0.351   0.373   0.391   0.406
 51 A    50 B    52 A    53 A    51 B    52 B    54 A    53 B                  
  0.454   0.465   0.513   0.517   0.542   0.550   0.566   0.585
 54 B    55 A    55 B    56 A    57 A    56 B    57 B    58 A                  
  0.610   0.614   0.629   0.649   0.657   0.659   0.670   0.681
 59 A    58 B    60 A    59 B    60 B    61 A    61 B    62 A                  
  0.699   0.718   0.726   0.727   0.741   0.749   0.774   0.785
 63 A    62 B    64 A    63 B    64 B    65 A    66 A    65 B                  
  0.818   0.819   0.826   0.847   0.866   0.920   0.939   0.948
 66 B    67 A    67 B    68 A    69 A    68 B    70 A    69 B                  
  0.953   0.955   0.960   0.967   0.982   0.992   0.994   1.018
 70 B    71 A    72 A    71 B    72 B    73 A    73 B    74 B                  
  1.030   1.041   1.067   1.096   1.106   1.117   1.146   1.158
 74 A    75 A    76 A    77 A    75 B    76 B    77 B    78 A                  
  1.169   1.179   1.206   1.249   1.260   1.317   1.341   1.347
 78 B    79 A    80 A    81 A    79 B    80 B    82 A    81 B                  
  1.351   1.357   1.373   1.466   1.467   1.511   1.532   1.583
 83 A    82 B    84 A    83 B    85 A    84 B    85 B    86 A                  
  1.679   1.692   1.731   1.802   1.862   1.871   1.885   1.916
 87 A    86 B    88 A    89 A    90 A    87 B    88 B    91 A                  
  1.922   1.938   1.963   2.007   2.048   2.069   2.085   2.116
 89 B    92 A    90 B    93 A    91 B    94 A    92 B    93 B                  
  2.166   2.178   2.180   2.225   2.244   2.254   2.335   2.362
 95 A    96 A    94 B    97 A    95 B    96 B    98 A    97 B                  
  2.366   2.417   2.453   2.456   2.466   2.492   2.507   2.528
 99 A    98 B    99 B   100 A   101 A   100 B   102 A   103 A                  
  2.533   2.565   2.585   2.608   2.666   2.692   2.719   2.748
101 B   102 B   104 A   103 B   105 A   106 A   104 B   105 B                  
  2.858   2.870   2.925   2.934   3.145   3.205   3.267   3.274
107 A   106 B   108 A   107 B   108 B   109 A   109 B   110 A                  
  3.399   3.427   3.721   3.742   3.973   3.980   4.239   4.295
111 A   110 B   112 A   111 B   112 B   113 A   114 A   113 B                  
  4.306   4.319   4.410   4.533   4.658   4.715
115 A   114 B   116 A   115 B   117 A   116 B                                  
 --------------------------------------------------------------
 
          Ground-State Mulliken Net Atomic Charges

     Atom                 Charge (a.u.)
  ----------------------------------------
      1 S                    -0.104211
      2 C                     0.015616
      3 C                    -0.353798
      4 C                     0.368402
      5 C                    -0.365408
      6 H                     0.122934
      7 C                    -0.365408
      8 S                    -0.104211
      9 C                     0.368402
     10 C                     0.015616
     11 C                    -0.353798
     12 H                     0.119888
     13 H                     0.196576
     14 H                     0.119888
     15 H                     0.196576
     16 H                     0.122934
  ----------------------------------------
  Sum of atomic charges =    -0.000000

 -----------------------------------------------------------------
                    Cartesian Multipole Moments
 -----------------------------------------------------------------
    Charge (ESU x 10^10)
                -0.0000
    Dipole Moment (Debye)
         X      -0.0000      Y       0.0000      Z      -0.2236
       Tot       0.2236
    Quadrupole Moments (Debye-Ang)
        XX     -61.1432     XY       1.5971     YY     -68.3228
        XZ       0.0000     YZ      -0.0000     ZZ     -78.5684
    Octopole Moments (Debye-Ang^2)
       XXX      -0.0000    XXY      -0.0000    XYY      -0.0000
       YYY       0.0000    XXZ       2.0882    XYZ      -4.5894
       YYZ      -3.1770    XZZ       0.0000    YZZ      -0.0000
       ZZZ       2.1137
    Hexadecapole Moments (Debye-Ang^3)
      XXXX   -1888.7598   XXXY     -23.1443   XXYY    -421.3562
      XYYY      17.3533   YYYY    -554.5807   XXXZ       0.0000
      XXYZ      -0.0000   XYYZ      -0.0000   YYYZ      -0.0000
      XXZZ    -426.5719   XYZZ      -7.1757   YYZZ    -123.9337
      XZZZ       0.0000   YZZZ      -0.0000   ZZZZ    -120.6022
 -----------------------------------------------------------------
 Calculating analytic gradient of the SCF energy
 Gradient of SCF Energy
            1           2           3           4           5           6
    1  -0.0000055   0.0000067   0.0000098  -0.0000190  -0.0000096   0.0000182
    2  -0.0000034   0.0000161  -0.0000429   0.0000230  -0.0000623  -0.0000181
    3  -0.0000139  -0.0000158  -0.0000095   0.0002882  -0.0002368  -0.0000252
            7           8           9          10          11          12
    1   0.0000096   0.0000055   0.0000190  -0.0000067  -0.0000098   0.0000044
    2   0.0000623   0.0000034  -0.0000230  -0.0000161   0.0000429   0.0000212
    3  -0.0002368  -0.0000139   0.0002882  -0.0000158  -0.0000095   0.0000116
           13          14          15          16
    1  -0.0000073  -0.0000044   0.0000073  -0.0000182
    2  -0.0000133  -0.0000212   0.0000133   0.0000181
    3   0.0000015   0.0000116   0.0000015  -0.0000252
 Max gradient component =       2.882E-04
 RMS gradient           =       7.879E-05
 Gradient time:  CPU 1.99 s  wall 2.00 s
 Geometry Optimization Parameters
   NAtoms,    NIC,     NZ,  NCons,   NDum,   NFix, NCnnct, MaxDiis
       16     111       0       1       0       0       0       0

 Cartesian Hessian Update
 Hessian Updated using BFGS Update


** CONSTRAINED OPTIMIZATION IN DELOCALIZED INTERNAL COORDINATES **
   Searching for a Minimum

   Optimization Cycle:   4

                       Coordinates (Angstroms)
     ATOM                X               Y               Z
      1  S         1.8482904395   -1.1937679491    0.2075395962
      2  C         3.2093414635   -0.1299257955    0.0459703451
      3  C         2.8154850872    1.1613795119   -0.1864344877
      4  C         1.3990862371    1.3046653477   -0.2500067468
      5  C         0.7164175137    0.1199564028   -0.0638569704
      6  H         0.8989756722    2.2463585618   -0.4474711849
      7  C        -0.7164175137   -0.1199564028   -0.0638569704
      8  S        -1.8482904395    1.1937679491    0.2075395962
      9  C        -1.3990862371   -1.3046653477   -0.2500067468
     10  C        -3.2093414635    0.1299257955    0.0459703451
     11  C        -2.8154850872   -1.1613795119   -0.1864344877
     12  H        -3.5108918173   -1.9826271939   -0.3166745352
     13  H         4.2132716806   -0.5223186608    0.1326881211
     14  H         3.5108918173    1.9826271939   -0.3166745352
     15  H        -4.2132716806    0.5223186608    0.1326881211
     16  H        -0.8989756722   -2.2463585618   -0.4474711849
   Point Group: c2    Number of degrees of freedom:    22


   Energy is  -1104.840711862

              Constraints and their Current Values
                                        Value     Constraint
   Dihedral:        4   5   7   9      160.000      160.000
 Hessian Updated using BFGS Update

 21 Hessian modes will be used to form the next step
  Hessian Eigenvalues:
     0.022452    0.044984    0.045001    0.045001    0.045009    0.045559
     0.159025    0.159913    0.160015    0.222740    0.243573    0.292601
     0.295399    0.314045    0.357624    0.360099    0.363456    0.389689
     0.426893    0.487809    0.557184

 Minimum Search - Taking Simple RFO Step
 Searching for Lamda that Minimizes Along All modes
 Value Taken    Lamda =   0.00000000
 Step Taken.  Stepsize is  0.001862

                             Maximum     Tolerance    Cnvgd?
         Gradient           0.000052      0.000300     YES
         Displacement       0.000962      0.001200     YES
         Energy change     -0.000000      0.000001     YES

 Final energy is   -1104.84071186222     


 ******************************
 **  OPTIMIZATION CONVERGED  **
 ******************************

                       Coordinates (Angstroms)
     ATOM                X               Y               Z
      1  S         1.8482904395   -1.1937679491    0.2075395962
      2  C         3.2093414635   -0.1299257955    0.0459703451
      3  C         2.8154850872    1.1613795119   -0.1864344877
      4  C         1.3990862371    1.3046653477   -0.2500067468
      5  C         0.7164175137    0.1199564028   -0.0638569704
      6  H         0.8989756722    2.2463585618   -0.4474711849
      7  C        -0.7164175137   -0.1199564028   -0.0638569704
      8  S        -1.8482904395    1.1937679491    0.2075395962
      9  C        -1.3990862371   -1.3046653477   -0.2500067468
     10  C        -3.2093414635    0.1299257955    0.0459703451
     11  C        -2.8154850872   -1.1613795119   -0.1864344877
     12  H        -3.5108918173   -1.9826271939   -0.3166745352
     13  H         4.2132716806   -0.5223186608    0.1326881211
     14  H         3.5108918173    1.9826271939   -0.3166745352
     15  H        -4.2132716806    0.5223186608    0.1326881211
     16  H        -0.8989756722   -2.2463585618   -0.4474711849

Z-matrix Print:
$molecule
0 1
S 
C  1 1.735029
H  2 1.081373 1 119.888580
C  2 1.369892 1 111.607174 3 179.975222 0
H  4 1.083975 2 123.373901 1 -179.950914 0
C  4 1.425047 2 112.837112 1 0.577332 0
H  6 1.084384 4 123.630532 2 178.616780 0
C  6 1.379936 4 113.538634 2 -0.074372 0
C  8 1.452782 6 129.027628 4 179.888151 0
C  9 1.379936 8 129.027628 6 -159.999982 0
H  10 1.084384 9 122.817254 8 1.184884 0
C  10 1.425047 9 113.538634 8 179.888151 0
H  12 1.083975 10 123.786731 9 -179.543594 0
C  12 1.369892 10 112.837112 9 -0.074372 0
H  14 1.081373 12 128.504241 10 -179.450119 0
S  14 1.735029 12 111.607174 10 0.577332 0
$end

 
 --------------------------------------------------------------
             Orbital Energies (a.u.) and Symmetries
 --------------------------------------------------------------
 
 Alpha MOs, Restricted
 -- Occupied --                  
-88.920 -88.920 -10.239 -10.239 -10.225 -10.225 -10.205 -10.205
  1 A     1 B     2 A     2 B     3 B     3 A     4 A     4 B                  
-10.203 -10.203  -7.979  -7.979  -5.943  -5.943  -5.940  -5.940
  5 B     5 A     6 A     6 B     7 A     7 B     8 B     8 A                  
 -5.936  -5.936  -0.900  -0.878  -0.772  -0.749  -0.737  -0.706
  9 B     9 A    10 A    10 B    11 A    11 B    12 A    12 B                  
 -0.604  -0.581  -0.552  -0.534  -0.527  -0.478  -0.420  -0.418
 13 A    13 B    14 A    14 B    15 A    15 B    16 B    16 A                  
 -0.408  -0.405  -0.401  -0.378  -0.374  -0.357  -0.344  -0.281
 17 A    17 B    18 A    19 A    18 B    19 B    20 A    21 A                  
 -0.264  -0.259  -0.213
 20 B    22 A    21 B                                                          
 -- Virtual --                   
 -0.058  -0.006  -0.004  -0.002   0.007   0.009   0.017   0.022
 23 A    24 A    22 B    23 B    25 A    24 B    25 B    26 A                  
  0.032   0.035   0.038   0.048   0.049   0.053   0.060   0.064
 27 A    28 A    26 B    29 A    30 A    27 B    28 B    29 B                  
  0.074   0.083   0.085   0.096   0.098   0.102   0.107   0.109
 30 B    31 A    31 B    32 A    32 B    33 A    34 A    35 A                  
  0.120   0.124   0.127   0.132   0.132   0.140   0.140   0.141
 33 B    34 B    36 A    37 A    35 B    36 B    38 A    37 B                  
  0.147   0.157   0.161   0.165   0.169   0.173   0.180   0.186
 39 A    38 B    39 B    40 A    41 A    40 B    42 A    41 B                  
  0.186   0.202   0.207   0.211   0.218   0.218   0.222   0.225
 43 A    42 B    43 B    44 A    44 B    45 A    46 A    45 B                  
  0.251   0.254   0.257   0.266   0.266   0.278   0.284   0.301
 46 B    47 A    47 B    48 B    48 A    49 A    49 B    50 A                  
  0.317   0.320   0.344   0.350   0.351   0.373   0.391   0.406
 51 A    50 B    52 A    53 A    51 B    52 B    54 A    53 B                  
  0.454   0.465   0.513   0.517   0.542   0.550   0.566   0.585
 54 B    55 A    55 B    56 A    57 A    56 B    57 B    58 A                  
  0.610   0.614   0.629   0.649   0.657   0.659   0.670   0.681
 59 A    58 B    60 A    59 B    60 B    61 A    61 B    62 A                  
  0.699   0.718   0.726   0.727   0.741   0.749   0.774   0.785
 63 A    62 B    64 A    63 B    64 B    65 A    66 A    65 B                  
  0.818   0.819   0.826   0.847   0.866   0.920   0.939   0.948
 66 B    67 A    67 B    68 A    69 A    68 B    70 A    69 B                  
  0.953   0.955   0.960   0.967   0.982   0.992   0.994   1.018
 70 B    71 A    72 A    71 B    72 B    73 A    73 B    74 B                  
  1.030   1.041   1.067   1.096   1.106   1.117   1.146   1.158
 74 A    75 A    76 A    77 A    75 B    76 B    77 B    78 A                  
  1.169   1.179   1.206   1.249   1.260   1.317   1.341   1.347
 78 B    79 A    80 A    81 A    79 B    80 B    82 A    81 B                  
  1.351   1.357   1.373   1.466   1.467   1.511   1.532   1.583
 83 A    82 B    84 A    83 B    85 A    84 B    85 B    86 A                  
  1.679   1.692   1.731   1.802   1.862   1.871   1.885   1.916
 87 A    86 B    88 A    89 A    90 A    87 B    88 B    91 A                  
  1.922   1.938   1.963   2.007   2.048   2.069   2.085   2.116
 89 B    92 A    90 B    93 A    91 B    94 A    92 B    93 B                  
  2.166   2.178   2.180   2.225   2.244   2.254   2.335   2.362
 95 A    96 A    94 B    97 A    95 B    96 B    98 A    97 B                  
  2.366   2.417   2.453   2.456   2.466   2.492   2.507   2.528
 99 A    98 B    99 B   100 A   101 A   100 B   102 A   103 A                  
  2.533   2.565   2.585   2.608   2.666   2.692   2.719   2.748
101 B   102 B   104 A   103 B   105 A   106 A   104 B   105 B                  
  2.858   2.870   2.925   2.934   3.145   3.205   3.267   3.274
107 A   106 B   108 A   107 B   108 B   109 A   109 B   110 A                  
  3.399   3.427   3.721   3.742   3.973   3.980   4.239   4.295
111 A   110 B   112 A   111 B   112 B   113 A   114 A   113 B                  
  4.306   4.319   4.410   4.533   4.658   4.715
115 A   114 B   116 A   115 B   117 A   116 B                                  
 
 Beta MOs, Restricted
 -- Occupied --                  
-88.920 -88.920 -10.239 -10.239 -10.225 -10.225 -10.205 -10.205
  1 A     1 B     2 A     2 B     3 B     3 A     4 A     4 B                  
-10.203 -10.203  -7.979  -7.979  -5.943  -5.943  -5.940  -5.940
  5 B     5 A     6 A     6 B     7 A     7 B     8 B     8 A                  
 -5.936  -5.936  -0.900  -0.878  -0.772  -0.749  -0.737  -0.706
  9 B     9 A    10 A    10 B    11 A    11 B    12 A    12 B                  
 -0.604  -0.581  -0.552  -0.534  -0.527  -0.478  -0.420  -0.418
 13 A    13 B    14 A    14 B    15 A    15 B    16 B    16 A                  
 -0.408  -0.405  -0.401  -0.378  -0.374  -0.357  -0.344  -0.281
 17 A    17 B    18 A    19 A    18 B    19 B    20 A    21 A                  
 -0.264  -0.259  -0.213
 20 B    22 A    21 B                                                          
 -- Virtual --                   
 -0.058  -0.006  -0.004  -0.002   0.007   0.009   0.017   0.022
 23 A    24 A    22 B    23 B    25 A    24 B    25 B    26 A                  
  0.032   0.035   0.038   0.048   0.049   0.053   0.060   0.064
 27 A    28 A    26 B    29 A    30 A    27 B    28 B    29 B                  
  0.074   0.083   0.085   0.096   0.098   0.102   0.107   0.109
 30 B    31 A    31 B    32 A    32 B    33 A    34 A    35 A                  
  0.120   0.124   0.127   0.132   0.132   0.140   0.140   0.141
 33 B    34 B    36 A    37 A    35 B    36 B    38 A    37 B                  
  0.147   0.157   0.161   0.165   0.169   0.173   0.180   0.186
 39 A    38 B    39 B    40 A    41 A    40 B    42 A    41 B                  
  0.186   0.202   0.207   0.211   0.218   0.218   0.222   0.225
 43 A    42 B    43 B    44 A    44 B    45 A    46 A    45 B                  
  0.251   0.254   0.257   0.266   0.266   0.278   0.284   0.301
 46 B    47 A    47 B    48 B    48 A    49 A    49 B    50 A                  
  0.317   0.320   0.344   0.350   0.351   0.373   0.391   0.406
 51 A    50 B    52 A    53 A    51 B    52 B    54 A    53 B                  
  0.454   0.465   0.513   0.517   0.542   0.550   0.566   0.585
 54 B    55 A    55 B    56 A    57 A    56 B    57 B    58 A                  
  0.610   0.614   0.629   0.649   0.657   0.659   0.670   0.681
 59 A    58 B    60 A    59 B    60 B    61 A    61 B    62 A                  
  0.699   0.718   0.726   0.727   0.741   0.749   0.774   0.785
 63 A    62 B    64 A    63 B    64 B    65 A    66 A    65 B                  
  0.818   0.819   0.826   0.847   0.866   0.920   0.939   0.948
 66 B    67 A    67 B    68 A    69 A    68 B    70 A    69 B                  
  0.953   0.955   0.960   0.967   0.982   0.992   0.994   1.018
 70 B    71 A    72 A    71 B    72 B    73 A    73 B    74 B                  
  1.030   1.041   1.067   1.096   1.106   1.117   1.146   1.158
 74 A    75 A    76 A    77 A    75 B    76 B    77 B    78 A                  
  1.169   1.179   1.206   1.249   1.260   1.317   1.341   1.347
 78 B    79 A    80 A    81 A    79 B    80 B    82 A    81 B                  
  1.351   1.357   1.373   1.466   1.467   1.511   1.532   1.583
 83 A    82 B    84 A    83 B    85 A    84 B    85 B    86 A                  
  1.679   1.692   1.731   1.802   1.862   1.871   1.885   1.916
 87 A    86 B    88 A    89 A    90 A    87 B    88 B    91 A                  
  1.922   1.938   1.963   2.007   2.048   2.069   2.085   2.116
 89 B    92 A    90 B    93 A    91 B    94 A    92 B    93 B                  
  2.166   2.178   2.180   2.225   2.244   2.254   2.335   2.362
 95 A    96 A    94 B    97 A    95 B    96 B    98 A    97 B                  
  2.366   2.417   2.453   2.456   2.466   2.492   2.507   2.528
 99 A    98 B    99 B   100 A   101 A   100 B   102 A   103 A                  
  2.533   2.565   2.585   2.608   2.666   2.692   2.719   2.748
101 B   102 B   104 A   103 B   105 A   106 A   104 B   105 B                  
  2.858   2.870   2.925   2.934   3.145   3.205   3.267   3.274
107 A   106 B   108 A   107 B   108 B   109 A   109 B   110 A                  
  3.399   3.427   3.721   3.742   3.973   3.980   4.239   4.295
111 A   110 B   112 A   111 B   112 B   113 A   114 A   113 B                  
  4.306   4.319   4.410   4.533   4.658   4.715
115 A   114 B   116 A   115 B   117 A   116 B                                  
 --------------------------------------------------------------
 
          Ground-State Mulliken Net Atomic Charges

     Atom                 Charge (a.u.)
  ----------------------------------------
      1 S                    -0.104211
      2 C                     0.015616
      3 C                    -0.353798
      4 C                     0.368402
      5 C                    -0.365408
      6 H                     0.122934
      7 C                    -0.365408
      8 S                    -0.104211
      9 C                     0.368402
     10 C                     0.015616
     11 C                    -0.353798
     12 H                     0.119888
     13 H                     0.196576
     14 H                     0.119888
     15 H                     0.196576
     16 H                     0.122934
  ----------------------------------------
  Sum of atomic charges =    -0.000000

 -----------------------------------------------------------------
                    Cartesian Multipole Moments
 -----------------------------------------------------------------
    Charge (ESU x 10^10)
                -0.0000
    Dipole Moment (Debye)
         X      -0.0000      Y       0.0000      Z      -0.2236
       Tot       0.2236
    Quadrupole Moments (Debye-Ang)
        XX     -61.1432     XY       1.5971     YY     -68.3228
        XZ       0.0000     YZ      -0.0000     ZZ     -78.5684
    Octopole Moments (Debye-Ang^2)
       XXX      -0.0000    XXY      -0.0000    XYY      -0.0000
       YYY       0.0000    XXZ       2.0882    XYZ      -4.5894
       YYZ      -3.1770    XZZ       0.0000    YZZ      -0.0000
       ZZZ       2.1137
    Hexadecapole Moments (Debye-Ang^3)
      XXXX   -1888.7598   XXXY     -23.1443   XXYY    -421.3562
      XYYY      17.3533   YYYY    -554.5807   XXXZ       0.0000
      XXYZ      -0.0000   XYYZ      -0.0000   YYYZ      -0.0000
      XXZZ    -426.5719   XYZZ      -7.1757   YYZZ    -123.9337
      XZZZ       0.0000   YZZZ      -0.0000   ZZZZ    -120.6022
 -----------------------------------------------------------------
Archival summary:
1\1\nid01044\OPT\ProcedureUnspecified\BasisUnspecified\286\FriSep218:43:452016FriSep218:43:452016\0\\#,OPT,ProcedureUnspecified,BasisUnspecified,\\0,1\S\C,1,1.73503\H,2,1.08137,1,119.889\C,2,1.36989,1,111.607,3,179.975,0\H,4,1.08397,2,123.374,1,-179.951,0\C,4,1.42505,2,112.837,1,0.577332,0\H,6,1.08438,4,123.631,2,178.617,0\C,6,1.37994,4,113.539,2,-0.0743723,0\C,8,1.45278,6,129.028,4,179.888,0\C,9,1.37994,8,129.028,6,-160,0\H,10,1.08438,9,122.817,8,1.18488,0\C,10,1.42505,9,113.539,8,179.888,0\H,12,1.08397,10,123.787,9,-179.544,0\C,12,1.36989,10,112.837,9,-0.0743723,0\H,14,1.08137,12,128.504,10,-179.45,0\S,14,1.73503,12,111.607,10,0.577332,0\\\@

 Total job time:  32.03s(wall), 35.40s(cpu) 
 Fri Sep  2 18:43:45 2016

        *************************************************************
        *                                                           *
        *  Thank you very much for using Q-Chem.  Have a nice day.  *
        *                                                           *
        *************************************************************


0 sent ACK to 0 
now end server 0 ... 
