srun -N 1 --ntasks-per-node 16 --nodelist nid01044 /global/project/projectdirs/jcesr/qchem/qc44/cnl_qc441/dist/exe/qcprog.cori.exe .pt_dft_-150.0.in.54615.qcin.1 /dev/shm/eg_qchem/qchem54615/
Process 1 of 16 is on nid01044 - thread support 0
Process 2 of 16 is on nid01044 - thread support 0
Process 3 of 16 is on nid01044 - thread support 0
Process 4 of 16 is on nid01044 - thread support 0
Process 5 of 16 is on nid01044 - thread support 0
Process 6 of 16 is on nid01044 - thread support 0
Process 0 of 16 is on nid01044 - thread support 0
Process 15 of 16 is on nid01044 - thread support 0
initial socket setup ...start
initial socket setup ...done 
now start server 0 ... 
nid01044 10.128.4
Q-Chem Developer Version! Running on 10.128.4.*
                  Welcome to Q-Chem
     A Quantum Leap Into The Future Of Chemistry


 Q-Chem 4.4, Q-Chem, Inc., Pleasanton, CA (2016)

 Y. Shao,  Z. Gan,  E. Epifanovsky,  A. T. B. Gilbert,  M. Wormit,  
 J. Kussmann,  A. W. Lange,  A. Behn,  J. Deng,  X. Feng,  D. Ghosh,  
 M. Goldey,  P. R. Horn,  L. D. Jacobson,  I. Kaliman,  F.Rob,  
 R. Z. Khaliullin,  T. Kus,  A. Landau,  J. Liu,  E. I. Proynov,  Y. M. Rhee,  
 R. M. Richard,  M. A. Rohrdanz,  R. P. Steele,  E. J. Sundstrom,  
 H. L. Woodcock III,  P. M. Zimmerman,  D. Zuev,  B. Albrecht,  E. Alguire,  
 B. Austin,  S. A. Baeppler,  G. J. O. Beran,  Y. A. Bernard,  E. Berquist,  
 K. Brandhorst,  K. B. Bravaya,  S. T. Brown,  D. Casanova,  C.-M. Chang,  
 Y. Chen,  S. H. Chien,  K. D. Closser,  M. P. Coons,  D. L. Crittenden,  
 S. Dasgupta,  M. Diedenhofen,  R. A. DiStasio Jr.,  H. Do,  A. D. Dutoi,  
 R. G. Edgar,  P.-T. Fang,  S. Fatehi,  Q. Feng,  L. Fusti-Molnar,  
 A. Ghysels,  A. Golubeva-Zadorozhnaya,  J. Gomes,  A. Gunina,  
 M. W. D. Hanson-Heine,  P. H. P. Harbach,  A. W. Hauser,  E. G. Hohenstein,  
 Z. C. Holden,  K. Hui,  T.-C. Jagau,  H. Ji,  B. Kaduk,  K. Khistyaev,  
 Jaehoon Kim,  Jihan Kim,  R. A. King,  P. Klunzinger,  D. Kosenkov,  
 T. Kowalczyk,  C. M. Krauter,  A. Kunitsa,  K. U. Lao,  A. Laurent,  
 K. V. Lawler,  D. Lefrancois,  S. Lehtola,  S. V. Levchenko,  C. Y. Lin,  
 Y.-S. Lin,  F. Liu,  E. Livshits,  R. C. Lochan,  A. Luenser,  P. Manohar,  
 S. F. Manzer,  S.-P. Mao,  Y. Mao,  N. Mardirossian,  A. V. Marenich,  
 L. A. Martinez-Martinez,  S. A. Maurer,  N. J. Mayhall,  J.-M. Mewes,  
 A. F. Morrison,  K. Nanda,  C. M. Oana,  R. Olivares-Amaya,  D. P. O'Neill,  
 J. A. Parkhill,  T. M. Perrine,  R. Peverati,  P. A. Pieniazek,  F. Plasser,  
 A. Prociuk,  D. R. Rehn,  E. Rosta,  N. J. Russ,  N. Sergueev,  
 S. M. Sharada,  S. Sharma,  D. W. Small,  A. Sodt,  T. Stauch,  T. Stein,  
 D. Stuck,  Y.-C. Su,  A. J. W. Thom,  T. Tsuchimochi,  L. Vogt,  O. Vydrov,  
 T. Wang,  M. A. Watson,  J. Wenzel,  A. White,  C. F. Williams,  
 V. Vanovschi,  S. Yeganeh,  S. R. Yost,  Z.-Q. You,  I. Y. Zhang,  X. Zhang,  
 Y. Zhao,  B. R. Brooks,  G. K. L. Chan,  D. M. Chipman,  C. J. Cramer,  
 W. A. Goddard III,  M. S. Gordon,  W. J. Hehre,  A. Klamt,  
 H. F. Schaefer III,  M. W. Schmidt,  C. D. Sherrill,  D. G. Truhlar,  
 A. Warshel,  X. Xu,  A. Aspuru-Guzik,  R. Baer,  A. T. Bell,  N. A. Besley,  
 J.-D. Chai,  A. Dreuw,  B. D. Dunietz,  T. R. Furlani,  S. R. Gwaltney,  
 C.-P. Hsu,  Y. Jung,  J. Kong,  D. S. Lambrecht,  W. Liang,  C. Ochsenfeld,  
 V. A. Rassolov,  L. V. Slipchenko,  J. E. Subotnik,  T. Van Voorhis,  
 J. M. Herbert,  A. I. Krylov,  P. M. W. Gill,  M. Head-Gordon

 Contributors to earlier versions of Q-Chem not listed above: 
 R. D. Adamson,  J. Baker,  E. F. C. Byrd,  A. K. Chakraborty,  C.-L. Cheng,  
 H. Dachsel,  R. J. Doerksen,  G. Hawkins,  A. Heyden,  S. Hirata,  
 G. Kedziora,  F. J. Keil,  C. Kelley,  P. P. Korambath,  W. Kurlancheek,  
 A. M. Lee,  M. S. Lee,  D. Liotard,  I. Lotan,  P. E. Maslen,  N. Nair,  
 D. Neuhauser,  R. Olson,  B. Peters,  J. Ritchie,  N. E. Schultz,  
 N. Shenvi,  A. C. Simmonett,  K. S. Thanthiriwatte,  Q. Wu,  W. Zhang

 Please cite Q-Chem as follows:
 Y. Shao et al., Mol. Phys. 113, 184-215 (2015)
 DOI: 10.1080/00268976.2014.952696

 Q-Chem 4.4.1 for Intel X86 EM64T Linux

 Parts of Q-Chem use Armadillo 5.200.1 (Boston Tea Smuggler).
 http://arma.sourceforge.net/

 Q-Chem begins on Fri Sep  2 18:29:26 2016  

Host: nid01043
0

     Scratch files written to /dev/shm/eg_qchem/qchem54615.0//
 Parallel job on  16  processors

Checking the input file for inconsistencies... 	...done.

--------------------------------------------------------------
User input:
--------------------------------------------------------------
$comment
<SCF Fix Strategy>{
    "current_method_id": 2, 
    "methods": [
        "increase_iter", 
        "diis_gdm", 
        "gwh", 
        "rca", 
        "gdm", 
        "core+gdm", 
        "fon"
    ], 
    "version": 2.0
}</SCF Fix Strategy>
$end


$molecule
 0  1
 S           1.82267924       -1.19997629        0.28714109
 C           3.20006180       -0.17260711        0.06528466
 C           2.82980603        1.10216298       -0.25610036
 C           1.41909100        1.26345446       -0.34254814
 C           0.71738150        0.10901545       -0.08456145
 H           0.93627498        2.19419272       -0.61095402
 C          -0.71741859       -0.10899254       -0.08455524
 S          -1.76704763        0.83360309       -1.12527490
 C          -1.45935174       -0.99869004        0.65683281
 C          -3.17323329       -0.00419203       -0.55726814
 C          -2.85487849       -0.93736383        0.38785470
 H          -3.58886167       -1.56906510        0.87048917
 H           4.19429620       -0.57452886        0.18632814
 H           3.53860725        1.89960515       -0.43610218
 H          -4.14431621        0.24535313       -0.95654228
 H          -1.01238281       -1.69349230        1.35604333
$end


$rem
         jobtype = opt
        exchange = b3lyp
           basis = 6-31++g**
  max_scf_cycles = 200
      mem_static = 100
       mem_total = 1500
   scf_algorithm = diis
       scf_guess = gwh
$end


$opt
CONSTRAINT
tors 4 5 7 9 -150.0
ENDCONSTRAINT
$end

--------------------------------------------------------------
 Atom   8: ( -1.8348545255,  1.1778940180, -0.2890981694)
         ->( -1.8348546797,  1.1778940400, -0.2890982756)
 Atom  10: ( -3.2002871934,  0.1298782145, -0.0912422679)
         ->( -3.2002872019,  0.1298780991, -0.0912421684)
 Atom  11: ( -2.8180162421, -1.1319369650,  0.2652797403)
         ->( -2.8180161134, -1.1319369510,  0.2652799808)
 Atom   9: ( -1.4064155186, -1.2737223911,  0.3696125144)
         ->( -1.4064153451, -1.2737224390,  0.3696121545)
 Atom   7: ( -0.7162057777, -0.1165934540,  0.0933050444)
         ->( -0.7162057271, -0.1165933011,  0.0933050354)
 Atom  16: ( -0.9128531022, -2.2049511245,  0.6158561811)
         ->( -0.9128528237, -2.2049511924,  0.6158554905)
 Atom  14: (  3.5180440278,  1.9386289937,  0.4382617901)
         ->(  3.5180442425,  1.9386289699,  0.4382613654)
 Atom  15: ( -4.1971430421,  0.5115604511, -0.2502760705)
         ->( -4.1971431331,  0.5115601709, -0.2502758373)
 ----------------------------------------------------------------
             Standard Nuclear Orientation (Angstroms)
    I     Atom           X                Y                Z
 ----------------------------------------------------------------
    1      S       1.8348546797    -1.1778940400    -0.2890982756
    2      C       3.2002872019    -0.1298780991    -0.0912421684
    3      C       2.8180161134     1.1319369510     0.2652799808
    4      C       1.4064153451     1.2737224390     0.3696121545
    5      C       0.7162057271     0.1165933011     0.0933050354
    6      H       0.9128528237     2.2049511924     0.6158554905
    7      C      -0.7162057271    -0.1165933011     0.0933050354
    8      S      -1.8348546797     1.1778940400    -0.2890982756
    9      C      -1.4064153451    -1.2737224390     0.3696121545
   10      C      -3.2002872019     0.1298780991    -0.0912421684
   11      C      -2.8180161134    -1.1319369510     0.2652799808
   12      H      -3.5180442425    -1.9386289699     0.4382613654
   13      H       4.1971431331    -0.5115601709    -0.2502758373
   14      H       3.5180442425     1.9386289699     0.4382613654
   15      H      -4.1971431331     0.5115601709    -0.2502758373
   16      H      -0.9128528237    -2.2049511924     0.6158554905
 ----------------------------------------------------------------
 Molecular Point Group                 C2    NOp =  2
 Largest Abelian Subgroup              C2    NOp =  2
 Nuclear Repulsion Energy =   630.0525835411 hartrees
 There are       43 alpha and       43 beta electrons
 Requested basis set is 6-31++G(d,p)
 There are 76 shells and 234 basis functions

 Total QAlloc Memory Limit   1500 MB
 Mega-Array Size        98 MB
 MEM_STATIC part       100 MB
 A cutoff of  1.0D-11 yielded   2493 shell pairs
 There are     24631 function pairs
 
 -------------------------------------------------------
 OpenMP Integral Computing Module                       
 Release: version 1.0, May 2013, Q-Chem Inc. Pittsburgh 
 -------------------------------------------------------
 Integral Job Info:
 Integral job number is                      11
 Integral operator is                         1
 short-range coefficients                     0
 long-range coefficients              100000000
 Omega coefficients                           0
 if combine SR and LR in K                    0
 Integral screening is                        0
 Integral computing path is                   2
 max size of driver memory is            800000
 size of driver memory is                593474
 size of scratch memory is             15166112
 max col of scratch BK array               1296
 max len of scratch array in speh3          155
 max len of scratch index in speh4           18
 max int batch size is                      520
 min int batch size is                       52
 fixed nKL is                                52
 max L of basis functions is                  2
 order of int derivative is                   0
 number of shells is                         76
 number of basis is                         234
 number of cartesian basis is               234
 number of contracted shell pairs          2493
 number of primitive shell pairs           8076
 maxK2 (contraction) of shell pair           36
 max number of K2 of shell pair               1
 max number of CS2 of shell pair            262
 max number of PS2 of shell pair           1548
 mem total for path MDJ                   51606
 -------------------------------------------------------
 Smallest overlap matrix eigenvalue = 1.00E-06

 Q-Chem warning in module /project/projectdirs/jcesr/qchem/qc44/cnl_qc441/compile/cori/qc_src/stvman/mkSTV.C, line 257:

 Overlap eigenvalue is smaller than square root of threshold


 Scale SEOQF with 1.000000e-01/1.000000e-01/1.000000e-01

 Standard Electronic Orientation quadrupole field applied
 Nucleus-field energy     =     0.0000000212 hartrees
 Constructing guess Fock matrix from core Hamiltonian
 Applying Wolfsberg-Helmholtz approximation
 A restricted hybrid HF-DFT SCF calculation will be
 performed using Pulay DIIS extrapolation
 Exchange:     0.2000 Hartree-Fock + 0.0800 Slater + 0.7200 B88
 Correlation:  0.1900 VWN1RPA + 0.8100 LYP
 Using SG-1 standard quadrature grid
 SCF converges when DIIS error is below 1.0E-08
 ---------------------------------------
  Cycle       Energy         DIIS Error
 ---------------------------------------
    1   -1088.4254660668      6.70E-02
    2   -1069.5882575751      4.67E-02
    3   -1021.5867451716      9.03E-02
    4   -1080.4986554459      5.43E-02
    5   -1098.5861108594      2.84E-02
    6   -1102.7875092515      1.60E-02
    7   -1104.2341409761      9.55E-03
    8   -1104.7095529989      4.20E-03
    9   -1104.8291387123      1.23E-03
   10   -1104.8384062435      4.93E-04
   11   -1104.8400713218      1.75E-04
   12   -1104.8403098017      3.47E-05
   13   -1104.8403181792      1.62E-05
   14   -1104.8403209135      2.21E-06
   15   -1104.8403245040      8.18E-07
   16   -1104.8403229994      2.01E-07
   17   -1104.8403216506      3.66E-07
   18   -1104.8403217477      2.44E-07
   19   -1104.8403224957      3.14E-08
   20   -1104.8403223767      4.02E-08
   21   -1104.8403221336      4.81E-08
   22   -1104.8403219974      4.90E-08
   23   -1104.8403220774      4.60E-08
   24   -1104.8403223441      6.48E-08
   25   -1104.8403223935      7.48E-08
   26   -1104.8403220287      5.95E-08
   27   -1104.8403222076      1.65E-07
   28   -1104.8403221072      1.47E-07
   29   -1104.8403219610      1.44E-07
   30   -1104.8403218672      1.27E-07
   31   -1104.8403218488      1.18E-07
   32   -1104.8403219968      1.21E-07
   33   -1104.8403221675      3.39E-08
   34   -1104.8403223213      3.82E-08
   35   -1104.8403227147      3.26E-08
   36   -1104.8403226304      4.27E-08
   37   -1104.8403218581      2.78E-08
   38   -1104.8403217881      3.11E-08
   39   -1104.8403227275      1.75E-07
   40   -1104.8403226227      1.39E-07
   41   -1104.8403218700      8.42E-08
   42   -1104.8403218123      7.69E-08
   43   -1104.8403224501      1.37E-07
   44   -1104.8403223904      1.30E-07
   45   -1104.8403223087      1.26E-07
   46   -1104.8403221859      1.10E-07
   47   -1104.8403221540      1.06E-07
   48   -1104.8403225012      1.15E-07
   49   -1104.8403227189      1.11E-07
   50   -1104.8403227372      1.10E-07
   51   -1104.8403227098      1.08E-07
   52   -1104.8403226562      1.60E-07
   53   -1104.8403226856      1.53E-07
   54   -1104.8403225533      8.30E-08
   55   -1104.8403224157      4.16E-08
   56   -1104.8403223717      1.50E-08
   57   -1104.8403221805      2.57E-08
   58   -1104.8403226573      6.60E-08
   59   -1104.8403227717      1.21E-07
   60   -1104.8403227686      1.24E-07
   61   -1104.8403225515      6.87E-08
   62   -1104.8403229216      5.12E-08
   63   -1104.8403226561      4.23E-08
   64   -1104.8403223290      3.01E-08
   65   -1104.8403227007      1.04E-07
   66   -1104.8403227313      1.29E-07
   67   -1104.8403228378      1.25E-07
   68   -1104.8403226378      1.53E-07
   69   -1104.8403226909      1.50E-07
   70   -1104.8403226338      1.35E-07
   71   -1104.8403230303      5.97E-08
   72   -1104.8403231482      5.39E-08
   73   -1104.8403231068      5.85E-08
   74   -1104.8403230451      4.01E-08
   75   -1104.8403229088      2.89E-08
   76   -1104.8403229480      3.01E-08
   77   -1104.8403229603      2.28E-08
   78   -1104.8403229808      4.99E-08
   79   -1104.8403228578      2.24E-08
   80   -1104.8403225575      6.45E-08
   81   -1104.8403227415      4.82E-08
   82   -1104.8403224902      1.50E-08
   83   -1104.8403222346      1.96E-08
   84   -1104.8403222295      1.82E-08
   85   -1104.8403221072      1.54E-08
   86   -1104.8403220719      9.18E-09 Convergence criterion met
 ---------------------------------------
 SCF time:  CPU 32.81 s  wall 27.53 s
 SCF   energy in the final basis set = -1104.8403220719
 Total energy in the final basis set = -1104.8403220719
 
 --------------------------------------------------------------
             Orbital Energies (a.u.) and Symmetries
 --------------------------------------------------------------
 
 Alpha MOs, Restricted
 -- Occupied --                  
-88.919 -88.919 -10.238 -10.238 -10.224 -10.224 -10.203 -10.203
  1 B     1 A     2 A     2 B     3 B     3 A     4 B     4 A                  
-10.202 -10.202  -7.979  -7.979  -5.943  -5.943  -5.939  -5.939
  5 B     5 A     6 A     6 B     7 A     7 B     8 B     8 A                  
 -5.936  -5.936  -0.902  -0.879  -0.772  -0.749  -0.738  -0.706
  9 B     9 A    10 A    10 B    11 A    11 B    12 A    12 B                  
 -0.604  -0.580  -0.553  -0.535  -0.527  -0.479  -0.420  -0.419
 13 A    13 B    14 A    14 B    15 A    15 B    16 B    16 A                  
 -0.410  -0.405  -0.400  -0.378  -0.375  -0.357  -0.345  -0.279
 17 A    17 B    18 A    19 A    18 B    19 B    20 A    21 A                  
 -0.263  -0.260  -0.215
 20 B    22 A    21 B                                                          
 -- Virtual --                   
 -0.055  -0.007  -0.006  -0.002   0.007   0.010   0.017   0.022
 23 A    22 B    24 A    23 B    25 A    24 B    25 B    26 A                  
  0.031   0.035   0.038   0.048   0.050   0.052   0.059   0.062
 27 A    28 A    26 B    29 A    27 B    30 A    28 B    29 B                  
  0.073   0.081   0.088   0.096   0.100   0.102   0.107   0.109
 30 B    31 A    31 B    32 A    32 B    33 A    34 A    35 A                  
  0.120   0.124   0.129   0.132   0.134   0.137   0.138   0.139
 33 B    34 B    36 A    37 A    35 B    36 B    37 B    38 A                  
  0.149   0.155   0.163   0.166   0.166   0.175   0.178   0.182
 39 A    38 B    39 B    40 A    41 A    40 B    42 A    41 B                  
  0.186   0.191   0.205   0.211   0.214   0.221   0.223   0.226
 43 A    42 B    43 B    44 A    44 B    45 A    45 B    46 A                  
  0.241   0.254   0.257   0.264   0.267   0.276   0.284   0.294
 46 B    47 A    47 B    48 B    48 A    49 A    49 B    50 A                  
  0.313   0.318   0.330   0.342   0.354   0.355   0.379   0.391
 50 B    51 A    51 B    52 A    53 A    52 B    53 B    54 A                  
  0.432   0.456   0.465   0.518   0.519   0.542   0.548   0.568
 54 B    55 B    55 A    56 A    56 B    57 A    57 B    58 B                  
  0.584   0.613   0.615   0.618   0.649   0.659   0.662   0.677
 58 A    59 A    59 B    60 A    60 B    61 B    61 A    62 B                  
  0.680   0.700   0.719   0.728   0.730   0.742   0.751   0.774
 62 A    63 A    63 B    64 A    64 B    65 B    65 A    66 A                  
  0.789   0.817   0.819   0.833   0.844   0.870   0.919   0.940
 66 B    67 A    67 B    68 B    68 A    69 A    69 B    70 A                  
  0.952   0.953   0.957   0.963   0.970   0.990   1.000   1.014
 70 B    71 A    71 B    72 A    72 B    73 A    73 B    74 B                  
  1.020   1.034   1.045   1.065   1.092   1.102   1.117   1.138
 75 B    74 A    75 A    76 A    77 A    76 B    77 B    78 A                  
  1.147   1.178   1.194   1.225   1.252   1.269   1.319   1.347
 78 B    79 A    80 A    79 B    81 A    80 B    81 B    82 A                  
  1.347   1.353   1.359   1.377   1.454   1.471   1.513   1.526
 82 B    83 A    83 B    84 A    85 A    84 B    85 B    86 B                  
  1.580   1.685   1.694   1.740   1.802   1.867   1.872   1.894
 86 A    87 A    87 B    88 A    89 A    90 A    88 B    89 B                  
  1.921   1.923   1.947   1.975   2.009   2.052   2.075   2.095
 90 B    91 A    92 A    91 B    93 A    92 B    94 A    93 B                  
  2.116   2.163   2.180   2.186   2.237   2.243   2.262   2.341
 94 B    95 A    96 A    95 B    97 A    96 B    97 B    98 A                  
  2.365   2.369   2.422   2.452   2.464   2.472   2.495   2.512
 98 B    99 A    99 B   100 A   100 B   101 A   101 B   102 A                  
  2.527   2.533   2.580   2.590   2.607   2.665   2.698   2.722
103 A   102 B   103 B   104 A   104 B   105 A   106 A   105 B                  
  2.754   2.862   2.870   2.924   2.938   3.154   3.209   3.274
106 B   107 A   107 B   108 A   108 B   109 B   109 A   110 B                  
  3.277   3.406   3.434   3.728   3.752   3.974   3.979   4.247
110 A   111 A   111 B   112 A   112 B   113 B   113 A   114 A                  
  4.308   4.317   4.334   4.415   4.540   4.660   4.719
115 A   114 B   115 B   116 A   116 B   117 A   117 B                          
 
 Beta MOs, Restricted
 -- Occupied --                  
-88.919 -88.919 -10.238 -10.238 -10.224 -10.224 -10.203 -10.203
  1 B     1 A     2 A     2 B     3 B     3 A     4 B     4 A                  
-10.202 -10.202  -7.979  -7.979  -5.943  -5.943  -5.939  -5.939
  5 B     5 A     6 A     6 B     7 A     7 B     8 B     8 A                  
 -5.936  -5.936  -0.902  -0.879  -0.772  -0.749  -0.738  -0.706
  9 B     9 A    10 A    10 B    11 A    11 B    12 A    12 B                  
 -0.604  -0.580  -0.553  -0.535  -0.527  -0.479  -0.420  -0.419
 13 A    13 B    14 A    14 B    15 A    15 B    16 B    16 A                  
 -0.410  -0.405  -0.400  -0.378  -0.375  -0.357  -0.345  -0.279
 17 A    17 B    18 A    19 A    18 B    19 B    20 A    21 A                  
 -0.263  -0.260  -0.215
 20 B    22 A    21 B                                                          
 -- Virtual --                   
 -0.055  -0.007  -0.006  -0.002   0.007   0.010   0.017   0.022
 23 A    22 B    24 A    23 B    25 A    24 B    25 B    26 A                  
  0.031   0.035   0.038   0.048   0.050   0.052   0.059   0.062
 27 A    28 A    26 B    29 A    27 B    30 A    28 B    29 B                  
  0.073   0.081   0.088   0.096   0.100   0.102   0.107   0.109
 30 B    31 A    31 B    32 A    32 B    33 A    34 A    35 A                  
  0.120   0.124   0.129   0.132   0.134   0.137   0.138   0.139
 33 B    34 B    36 A    37 A    35 B    36 B    37 B    38 A                  
  0.149   0.155   0.163   0.166   0.166   0.175   0.178   0.182
 39 A    38 B    39 B    40 A    41 A    40 B    42 A    41 B                  
  0.186   0.191   0.205   0.211   0.214   0.221   0.223   0.226
 43 A    42 B    43 B    44 A    44 B    45 A    45 B    46 A                  
  0.241   0.254   0.257   0.264   0.267   0.276   0.284   0.294
 46 B    47 A    47 B    48 B    48 A    49 A    49 B    50 A                  
  0.313   0.318   0.330   0.342   0.354   0.355   0.379   0.391
 50 B    51 A    51 B    52 A    53 A    52 B    53 B    54 A                  
  0.432   0.456   0.465   0.518   0.519   0.542   0.548   0.568
 54 B    55 B    55 A    56 A    56 B    57 A    57 B    58 B                  
  0.584   0.613   0.615   0.618   0.649   0.659   0.662   0.677
 58 A    59 A    59 B    60 A    60 B    61 B    61 A    62 B                  
  0.680   0.700   0.719   0.728   0.730   0.742   0.751   0.774
 62 A    63 A    63 B    64 A    64 B    65 B    65 A    66 A                  
  0.789   0.817   0.819   0.833   0.844   0.870   0.919   0.940
 66 B    67 A    67 B    68 B    68 A    69 A    69 B    70 A                  
  0.952   0.953   0.957   0.963   0.970   0.990   1.000   1.014
 70 B    71 A    71 B    72 A    72 B    73 A    73 B    74 B                  
  1.020   1.034   1.045   1.065   1.092   1.102   1.117   1.138
 75 B    74 A    75 A    76 A    77 A    76 B    77 B    78 A                  
  1.147   1.178   1.194   1.225   1.252   1.269   1.319   1.347
 78 B    79 A    80 A    79 B    81 A    80 B    81 B    82 A                  
  1.347   1.353   1.359   1.377   1.454   1.471   1.513   1.526
 82 B    83 A    83 B    84 A    85 A    84 B    85 B    86 B                  
  1.580   1.685   1.694   1.740   1.802   1.867   1.872   1.894
 86 A    87 A    87 B    88 A    89 A    90 A    88 B    89 B                  
  1.921   1.923   1.947   1.975   2.009   2.052   2.075   2.095
 90 B    91 A    92 A    91 B    93 A    92 B    94 A    93 B                  
  2.116   2.163   2.180   2.186   2.237   2.243   2.262   2.341
 94 B    95 A    96 A    95 B    97 A    96 B    97 B    98 A                  
  2.365   2.369   2.422   2.452   2.464   2.472   2.495   2.512
 98 B    99 A    99 B   100 A   100 B   101 A   101 B   102 A                  
  2.527   2.533   2.580   2.590   2.607   2.665   2.698   2.722
103 A   102 B   103 B   104 A   104 B   105 A   106 A   105 B                  
  2.754   2.862   2.870   2.924   2.938   3.154   3.209   3.274
106 B   107 A   107 B   108 A   108 B   109 B   109 A   110 B                  
  3.277   3.406   3.434   3.728   3.752   3.974   3.979   4.247
110 A   111 A   111 B   112 A   112 B   113 B   113 A   114 A                  
  4.308   4.317   4.334   4.415   4.540   4.660   4.719
115 A   114 B   115 B   116 A   116 B   117 A   117 B                          
 --------------------------------------------------------------
 
          Ground-State Mulliken Net Atomic Charges

     Atom                 Charge (a.u.)
  ----------------------------------------
      1 S                    -0.058458
      2 C                    -0.036736
      3 C                    -0.390157
      4 C                     0.295141
      5 C                    -0.238395
      6 H                     0.126234
      7 C                    -0.238394
      8 S                    -0.058458
      9 C                     0.295141
     10 C                    -0.036736
     11 C                    -0.390157
     12 H                     0.114436
     13 H                     0.187934
     14 H                     0.114436
     15 H                     0.187934
     16 H                     0.126234
  ----------------------------------------
  Sum of atomic charges =     0.000000

 -----------------------------------------------------------------
                    Cartesian Multipole Moments
 -----------------------------------------------------------------
    Charge (ESU x 10^10)
                 0.0000
    Dipole Moment (Debye)
         X       0.0000      Y       0.0000      Z       0.2116
       Tot       0.2116
    Quadrupole Moments (Debye-Ang)
        XX     -61.1854     XY       1.6386     YY     -68.6366
        XZ      -0.0000     YZ       0.0000     ZZ     -78.1258
    Octopole Moments (Debye-Ang^2)
       XXX      -0.0000    XXY       0.0000    XYY      -0.0000
       YYY       0.0000    XXZ      -4.6742    XYZ       6.4532
       YYZ       4.1030    XZZ      -0.0000    YZZ       0.0000
       ZZZ      -2.6264
    Hexadecapole Moments (Debye-Ang^3)
      XXXX   -1883.1663   XXXY     -19.8705   XXYY    -419.5129
      XYYY      16.1788   YYYY    -540.4045   XXXZ      -0.0000
      XXYZ      -0.0000   XYYZ      -0.0000   YYYZ      -0.0000
      XXZZ    -423.2406   XYZZ      -6.2165   YYZZ    -121.0293
      XZZZ      -0.0000   YZZZ       0.0000   ZZZZ    -138.1305
 -----------------------------------------------------------------
 Calculating analytic gradient of the SCF energy
 Gradient of SCF Energy
            1           2           3           4           5           6
    1   0.0005411  -0.0007224  -0.0006456   0.0001552   0.0001935   0.0006364
    2   0.0011793   0.0033736  -0.0031695  -0.0031347   0.0028451  -0.0009096
    3   0.0019642  -0.0009206   0.0009669   0.0022565  -0.0014676  -0.0019109
            7           8           9          10          11          12
    1  -0.0001935  -0.0005411  -0.0001552   0.0007224   0.0006456   0.0009218
    2  -0.0028451  -0.0011793   0.0031347  -0.0033736   0.0031695   0.0011184
    3  -0.0014676   0.0019642   0.0022565  -0.0009206   0.0009669  -0.0003434
           13          14          15          16
    1  -0.0015881  -0.0009218   0.0015881  -0.0006364
    2   0.0005491  -0.0011184  -0.0005491   0.0009096
    3  -0.0005452  -0.0003434  -0.0005452  -0.0019109
 Max gradient component =       3.374E-03
 RMS gradient           =       1.647E-03
 Gradient time:  CPU 1.94 s  wall 1.96 s
 Geometry Optimization Parameters
   NAtoms,    NIC,     NZ,  NCons,   NDum,   NFix, NCnnct, MaxDiis
       16     111       0       1       0       0       0       0


** CONSTRAINED OPTIMIZATION IN DELOCALIZED INTERNAL COORDINATES **
   Searching for a Minimum

   Optimization Cycle:   1

                       Coordinates (Angstroms)
     ATOM                X               Y               Z
      1  S         1.8348546797   -1.1778940400   -0.2890982756
      2  C         3.2002872019   -0.1298780991   -0.0912421684
      3  C         2.8180161134    1.1319369510    0.2652799808
      4  C         1.4064153451    1.2737224390    0.3696121545
      5  C         0.7162057271    0.1165933011    0.0933050354
      6  H         0.9128528237    2.2049511924    0.6158554905
      7  C        -0.7162057271   -0.1165933011    0.0933050354
      8  S        -1.8348546797    1.1778940400   -0.2890982756
      9  C        -1.4064153451   -1.2737224390    0.3696121545
     10  C        -3.2002872019    0.1298780991   -0.0912421684
     11  C        -2.8180161134   -1.1319369510    0.2652799808
     12  H        -3.5180442425   -1.9386289699    0.4382613654
     13  H         4.1971431331   -0.5115601709   -0.2502758373
     14  H         3.5180442425    1.9386289699    0.4382613654
     15  H        -4.1971431331    0.5115601709   -0.2502758373
     16  H        -0.9128528237   -2.2049511924    0.6158554905
   Point Group: c2    Number of degrees of freedom:    22


   Energy is  -1104.840322072

              Constraints and their Current Values
                                        Value     Constraint
   Dihedral:        4   5   7   9     -150.000     -150.000

 Attempting to Generate Delocalized Internal Coordinates

 21 Hessian modes will be used to form the next step
  Hessian Eigenvalues:
     0.045000    0.045000    0.045000    0.045002    0.045004    0.045013
     0.159937    0.159990    0.160000    0.221280    0.237833    0.249997
     0.296078    0.314672    0.357149    0.357543    0.360899    0.380793
     0.408411    0.470750    0.505998

 Minimum Search - Taking Simple RFO Step
 Searching for Lamda that Minimizes Along All modes
 Value Taken    Lamda =  -0.00064516
 Step Taken.  Stepsize is  0.096329

                             Maximum     Tolerance    Cnvgd?
         Gradient           0.005516      0.000300      NO
         Displacement       0.072496      0.001200      NO
         Energy change     *********      0.000001      NO


 New Cartesian Coordinates Obtained by Inverse Iteration

 Displacement from previous Coordinates is:  0.159955
 ----------------------------------------------------------------
             Standard Nuclear Orientation (Angstroms)
    I     Atom           X                Y                Z
 ----------------------------------------------------------------
    1      S       1.8400173161    -1.1751270687    -0.3089449818
    2      C       3.2079522559    -0.1336170870    -0.0761614094
    3      C       2.8229060105     1.1371952189     0.2618910626
    4      C       1.4071967751     1.2806154158     0.3524155882
    5      C       0.7176061086     0.1182899758     0.0751713673
    6      H       0.9110895828     2.2103418708     0.6087933204
    7      C      -0.7176061086    -0.1182899758     0.0751713673
    8      S      -1.8400173161     1.1751270687    -0.3089449818
    9      C      -1.4071967751    -1.2806154158     0.3524155882
   10      C      -3.2079522559     0.1336170870    -0.0761614094
   11      C      -2.8229060105    -1.1371952189     0.2618910626
   12      H      -3.5237694290    -1.9431526310     0.4481123796
   13      H       4.2089389067    -0.5208219143    -0.2095795817
   14      H       3.5237694290     1.9431526310     0.4481123796
   15      H      -4.2089389067     0.5208219143    -0.2095795817
   16      H      -0.9110895828    -2.2103418708     0.6087933204
 ----------------------------------------------------------------
 Molecular Point Group                 C2    NOp =  2
 Largest Abelian Subgroup              C2    NOp =  2
 Nuclear Repulsion Energy =   628.7547581825 hartrees
 There are       43 alpha and       43 beta electrons
 Applying Cartesian multipole field
    Component          Value
    ---------          -----
     (2,0,0)        1.00000E-11
     (0,2,0)        2.00000E-11
     (0,0,2)       -3.00000E-11
 Nucleus-field energy     =     0.0000000212 hartrees
 Requested basis set is 6-31++G(d,p)
 There are 76 shells and 234 basis functions
 A cutoff of  1.0D-11 yielded   2493 shell pairs
 There are     24631 function pairs
 Smallest overlap matrix eigenvalue = 1.01E-06

 Q-Chem warning in module /project/projectdirs/jcesr/qchem/qc44/cnl_qc441/compile/cori/qc_src/stvman/mkSTV.C, line 257:

 Overlap eigenvalue is smaller than square root of threshold

 Guess MOs from SCF MO coefficient file
 Reading MOs from coefficient file
 Reading MOs from coefficient file
 A restricted hybrid HF-DFT SCF calculation will be
 performed using Pulay DIIS extrapolation
 Exchange:     0.2000 Hartree-Fock + 0.0800 Slater + 0.7200 B88
 Correlation:  0.1900 VWN1RPA + 0.8100 LYP
 Using SG-1 standard quadrature grid
 SCF converges when DIIS error is below 1.0E-08
 Geometry optimization detected.  Setting ReadMinima to 0
 Setting SaveMinima to 0
 ---------------------------------------
  Cycle       Energy         DIIS Error
 ---------------------------------------
    1   -1104.8182939314      6.26E-04
    2   -1104.8405545325      1.17E-04
    3   -1104.8402536869      2.31E-04
    4   -1104.8406740634      3.33E-05
    5   -1104.8406814621      8.69E-06
    6   -1104.8406819294      4.29E-06
    7   -1104.8406820759      1.30E-06
    8   -1104.8406820868      4.10E-07
    9   -1104.8406820881      6.58E-08
   10   -1104.8406820885      3.16E-08
   11   -1104.8406820885      5.31E-09 Convergence criterion met
 ---------------------------------------
 SCF time:  CPU 5.79 s  wall 5.13 s
 SCF   energy in the final basis set = -1104.8406820885
 Total energy in the final basis set = -1104.8406820885
 
 --------------------------------------------------------------
             Orbital Energies (a.u.) and Symmetries
 --------------------------------------------------------------
 
 Alpha MOs, Restricted
 -- Occupied --                  
-88.920 -88.920 -10.239 -10.239 -10.225 -10.225 -10.205 -10.205
  1 B     1 A     2 A     2 B     3 B     3 A     4 B     4 A                  
-10.203 -10.203  -7.979  -7.979  -5.943  -5.943  -5.940  -5.940
  5 B     5 A     6 A     6 B     7 A     7 B     8 B     8 A                  
 -5.936  -5.936  -0.900  -0.878  -0.771  -0.748  -0.737  -0.706
  9 B     9 A    10 A    10 B    11 A    11 B    12 A    12 B                  
 -0.604  -0.579  -0.553  -0.534  -0.526  -0.478  -0.420  -0.418
 13 A    13 B    14 A    14 B    15 A    15 B    16 B    16 A                  
 -0.408  -0.405  -0.400  -0.378  -0.374  -0.357  -0.345  -0.278
 17 A    17 B    18 A    19 A    18 B    19 B    20 A    21 A                  
 -0.263  -0.260  -0.215
 20 B    22 A    21 B                                                          
 -- Virtual --                   
 -0.055  -0.007  -0.006  -0.003   0.007   0.009   0.017   0.022
 23 A    22 B    24 A    23 B    25 A    24 B    25 B    26 A                  
  0.031   0.034   0.038   0.047   0.049   0.051   0.059   0.061
 27 A    28 A    26 B    29 A    27 B    30 A    28 B    29 B                  
  0.072   0.081   0.088   0.096   0.099   0.101   0.107   0.109
 30 B    31 A    31 B    32 A    32 B    33 A    34 A    35 A                  
  0.119   0.123   0.129   0.132   0.134   0.137   0.138   0.138
 33 B    34 B    36 A    37 A    35 B    36 B    38 A    37 B                  
  0.148   0.155   0.162   0.165   0.165   0.173   0.178   0.182
 39 A    38 B    39 B    40 A    41 A    40 B    42 A    41 B                  
  0.186   0.191   0.205   0.210   0.213   0.221   0.222   0.225
 43 A    42 B    43 B    44 A    44 B    45 A    45 B    46 A                  
  0.241   0.254   0.257   0.262   0.266   0.276   0.283   0.293
 46 B    47 A    47 B    48 B    48 A    49 A    49 B    50 A                  
  0.312   0.316   0.328   0.342   0.353   0.354   0.378   0.388
 50 B    51 A    51 B    52 A    53 A    52 B    53 B    54 A                  
  0.431   0.455   0.464   0.517   0.518   0.540   0.547   0.566
 54 B    55 B    55 A    56 A    56 B    57 A    57 B    58 B                  
  0.582   0.611   0.616   0.617   0.650   0.658   0.663   0.679
 58 A    59 A    59 B    60 A    60 B    61 B    61 A    62 A                  
  0.679   0.699   0.720   0.727   0.728   0.741   0.752   0.773
 62 B    63 A    63 B    64 A    64 B    65 B    65 A    66 A                  
  0.787   0.817   0.819   0.832   0.843   0.867   0.918   0.941
 66 B    67 A    67 B    68 B    68 A    69 A    69 B    70 A                  
  0.951   0.954   0.957   0.960   0.969   0.990   0.998   1.014
 70 B    71 A    71 B    72 A    72 B    73 A    73 B    74 B                  
  1.018   1.031   1.045   1.064   1.090   1.100   1.116   1.139
 75 B    74 A    75 A    76 A    77 A    76 B    77 B    78 A                  
  1.146   1.177   1.195   1.224   1.249   1.266   1.321   1.344
 78 B    79 A    80 A    79 B    81 A    80 B    81 B    82 A                  
  1.345   1.351   1.359   1.377   1.457   1.469   1.512   1.522
 82 B    83 A    83 B    84 A    85 A    84 B    85 B    86 B                  
  1.575   1.683   1.693   1.738   1.800   1.864   1.868   1.891
 86 A    87 A    87 B    88 A    89 A    90 A    88 B    89 B                  
  1.918   1.919   1.942   1.971   2.006   2.045   2.071   2.093
 91 A    90 B    92 A    91 B    93 A    92 B    94 A    93 B                  
  2.112   2.161   2.175   2.183   2.233   2.240   2.257   2.334
 94 B    95 A    96 A    95 B    97 A    96 B    97 B    98 A                  
  2.363   2.367   2.421   2.450   2.456   2.467   2.493   2.507
 98 B    99 A    99 B   100 A   100 B   101 A   101 B   102 A                  
  2.524   2.533   2.575   2.585   2.603   2.661   2.692   2.718
103 A   102 B   103 B   104 A   104 B   105 A   106 A   105 B                  
  2.747   2.854   2.864   2.917   2.932   3.145   3.200   3.269
106 B   107 A   107 B   108 A   108 B   109 B   109 A   110 B                  
  3.272   3.400   3.427   3.720   3.742   3.973   3.977   4.244
110 A   111 A   111 B   112 A   112 B   113 B   113 A   114 A                  
  4.305   4.317   4.331   4.413   4.538   4.657   4.713
115 A   114 B   115 B   116 A   116 B   117 A   117 B                          
 
 Beta MOs, Restricted
 -- Occupied --                  
-88.920 -88.920 -10.239 -10.239 -10.225 -10.225 -10.205 -10.205
  1 B     1 A     2 A     2 B     3 B     3 A     4 B     4 A                  
-10.203 -10.203  -7.979  -7.979  -5.943  -5.943  -5.940  -5.940
  5 B     5 A     6 A     6 B     7 A     7 B     8 B     8 A                  
 -5.936  -5.936  -0.900  -0.878  -0.771  -0.748  -0.737  -0.706
  9 B     9 A    10 A    10 B    11 A    11 B    12 A    12 B                  
 -0.604  -0.579  -0.553  -0.534  -0.526  -0.478  -0.420  -0.418
 13 A    13 B    14 A    14 B    15 A    15 B    16 B    16 A                  
 -0.408  -0.405  -0.400  -0.378  -0.374  -0.357  -0.345  -0.278
 17 A    17 B    18 A    19 A    18 B    19 B    20 A    21 A                  
 -0.263  -0.260  -0.215
 20 B    22 A    21 B                                                          
 -- Virtual --                   
 -0.055  -0.007  -0.006  -0.003   0.007   0.009   0.017   0.022
 23 A    22 B    24 A    23 B    25 A    24 B    25 B    26 A                  
  0.031   0.034   0.038   0.047   0.049   0.051   0.059   0.061
 27 A    28 A    26 B    29 A    27 B    30 A    28 B    29 B                  
  0.072   0.081   0.088   0.096   0.099   0.101   0.107   0.109
 30 B    31 A    31 B    32 A    32 B    33 A    34 A    35 A                  
  0.119   0.123   0.129   0.132   0.134   0.137   0.138   0.138
 33 B    34 B    36 A    37 A    35 B    36 B    38 A    37 B                  
  0.148   0.155   0.162   0.165   0.165   0.173   0.178   0.182
 39 A    38 B    39 B    40 A    41 A    40 B    42 A    41 B                  
  0.186   0.191   0.205   0.210   0.213   0.221   0.222   0.225
 43 A    42 B    43 B    44 A    44 B    45 A    45 B    46 A                  
  0.241   0.254   0.257   0.262   0.266   0.276   0.283   0.293
 46 B    47 A    47 B    48 B    48 A    49 A    49 B    50 A                  
  0.312   0.316   0.328   0.342   0.353   0.354   0.378   0.388
 50 B    51 A    51 B    52 A    53 A    52 B    53 B    54 A                  
  0.431   0.455   0.464   0.517   0.518   0.540   0.547   0.566
 54 B    55 B    55 A    56 A    56 B    57 A    57 B    58 B                  
  0.582   0.611   0.616   0.617   0.650   0.658   0.663   0.679
 58 A    59 A    59 B    60 A    60 B    61 B    61 A    62 A                  
  0.679   0.699   0.720   0.727   0.728   0.741   0.752   0.773
 62 B    63 A    63 B    64 A    64 B    65 B    65 A    66 A                  
  0.787   0.817   0.819   0.832   0.843   0.867   0.918   0.941
 66 B    67 A    67 B    68 B    68 A    69 A    69 B    70 A                  
  0.951   0.954   0.957   0.960   0.969   0.990   0.998   1.014
 70 B    71 A    71 B    72 A    72 B    73 A    73 B    74 B                  
  1.018   1.031   1.045   1.064   1.090   1.100   1.116   1.139
 75 B    74 A    75 A    76 A    77 A    76 B    77 B    78 A                  
  1.146   1.177   1.195   1.224   1.249   1.266   1.321   1.344
 78 B    79 A    80 A    79 B    81 A    80 B    81 B    82 A                  
  1.345   1.351   1.359   1.377   1.457   1.469   1.512   1.522
 82 B    83 A    83 B    84 A    85 A    84 B    85 B    86 B                  
  1.575   1.683   1.693   1.738   1.800   1.864   1.868   1.891
 86 A    87 A    87 B    88 A    89 A    90 A    88 B    89 B                  
  1.918   1.919   1.942   1.971   2.006   2.045   2.071   2.093
 91 A    90 B    92 A    91 B    93 A    92 B    94 A    93 B                  
  2.112   2.161   2.175   2.183   2.233   2.240   2.257   2.334
 94 B    95 A    96 A    95 B    97 A    96 B    97 B    98 A                  
  2.363   2.367   2.421   2.450   2.456   2.467   2.493   2.507
 98 B    99 A    99 B   100 A   100 B   101 A   101 B   102 A                  
  2.524   2.533   2.575   2.585   2.603   2.661   2.692   2.718
103 A   102 B   103 B   104 A   104 B   105 A   106 A   105 B                  
  2.747   2.854   2.864   2.917   2.932   3.145   3.200   3.269
106 B   107 A   107 B   108 A   108 B   109 B   109 A   110 B                  
  3.272   3.400   3.427   3.720   3.742   3.973   3.977   4.244
110 A   111 A   111 B   112 A   112 B   113 B   113 A   114 A                  
  4.305   4.317   4.331   4.413   4.538   4.657   4.713
115 A   114 B   115 B   116 A   116 B   117 A   117 B                          
 --------------------------------------------------------------
 
          Ground-State Mulliken Net Atomic Charges

     Atom                 Charge (a.u.)
  ----------------------------------------
      1 S                    -0.055669
      2 C                    -0.041323
      3 C                    -0.385735
      4 C                     0.287401
      5 C                    -0.235281
      6 H                     0.127424
      7 C                    -0.235281
      8 S                    -0.055669
      9 C                     0.287401
     10 C                    -0.041323
     11 C                    -0.385735
     12 H                     0.115161
     13 H                     0.188023
     14 H                     0.115161
     15 H                     0.188023
     16 H                     0.127424
  ----------------------------------------
  Sum of atomic charges =     0.000000

 -----------------------------------------------------------------
                    Cartesian Multipole Moments
 -----------------------------------------------------------------
    Charge (ESU x 10^10)
                 0.0000
    Dipole Moment (Debye)
         X      -0.0000      Y      -0.0000      Z       0.2679
       Tot       0.2679
    Quadrupole Moments (Debye-Ang)
        XX     -61.1425     XY       1.5683     YY     -68.6454
        XZ      -0.0000     YZ      -0.0000     ZZ     -78.2089
    Octopole Moments (Debye-Ang^2)
       XXX       0.0000    XXY      -0.0000    XYY       0.0000
       YYY      -0.0000    XXZ      -2.5698    XYZ       6.5165
       YYZ       4.8798    XZZ       0.0000    YZZ      -0.0000
       ZZZ      -0.4583
    Hexadecapole Moments (Debye-Ang^3)
      XXXX   -1889.4346   XXXY     -21.9836   XXYY    -420.9724
      XYYY      15.6557   YYYY    -541.9969   XXXZ      -0.0000
      XXYZ      -0.0000   XYYZ      -0.0000   YYYZ      -0.0000
      XXZZ    -426.0729   XYZZ      -6.3516   YYZZ    -121.3101
      XZZZ      -0.0000   YZZZ      -0.0000   ZZZZ    -138.7144
 -----------------------------------------------------------------
 Calculating analytic gradient of the SCF energy
 Gradient of SCF Energy
            1           2           3           4           5           6
    1   0.0000471   0.0001095   0.0002674  -0.0000303  -0.0000112  -0.0000491
    2  -0.0001263   0.0000608   0.0000364  -0.0005644   0.0004633   0.0003883
    3  -0.0001547   0.0000564   0.0000259   0.0020178  -0.0006801  -0.0009736
            7           8           9          10          11          12
    1   0.0000112  -0.0000471   0.0000303  -0.0001095  -0.0002674  -0.0000791
    2  -0.0004633   0.0001263   0.0005644  -0.0000608  -0.0000364  -0.0001012
    3  -0.0006801  -0.0001547   0.0020178   0.0000564   0.0000259  -0.0000237
           13          14          15          16
    1   0.0000334   0.0000791  -0.0000334   0.0000491
    2  -0.0000653   0.0001012   0.0000653  -0.0003883
    3  -0.0002681  -0.0000237  -0.0002681  -0.0009736
 Max gradient component =       2.018E-03
 RMS gradient           =       5.163E-04
 Gradient time:  CPU 1.90 s  wall 1.93 s
 Geometry Optimization Parameters
   NAtoms,    NIC,     NZ,  NCons,   NDum,   NFix, NCnnct, MaxDiis
       16     111       0       1       0       0       0       0

 Cartesian Hessian Update
 Hessian Updated using BFGS Update


** CONSTRAINED OPTIMIZATION IN DELOCALIZED INTERNAL COORDINATES **
   Searching for a Minimum

   Optimization Cycle:   2

                       Coordinates (Angstroms)
     ATOM                X               Y               Z
      1  S         1.8400173161   -1.1751270687   -0.3089449818
      2  C         3.2079522559   -0.1336170870   -0.0761614094
      3  C         2.8229060105    1.1371952189    0.2618910626
      4  C         1.4071967751    1.2806154158    0.3524155882
      5  C         0.7176061086    0.1182899758    0.0751713673
      6  H         0.9110895828    2.2103418708    0.6087933204
      7  C        -0.7176061086   -0.1182899758    0.0751713673
      8  S        -1.8400173161    1.1751270687   -0.3089449818
      9  C        -1.4071967751   -1.2806154158    0.3524155882
     10  C        -3.2079522559    0.1336170870   -0.0761614094
     11  C        -2.8229060105   -1.1371952189    0.2618910626
     12  H        -3.5237694290   -1.9431526310    0.4481123796
     13  H         4.2089389067   -0.5208219143   -0.2095795817
     14  H         3.5237694290    1.9431526310    0.4481123796
     15  H        -4.2089389067    0.5208219143   -0.2095795817
     16  H        -0.9110895828   -2.2103418708    0.6087933204
   Point Group: c2    Number of degrees of freedom:    22


   Energy is  -1104.840682089

              Constraints and their Current Values
                                        Value     Constraint
   Dihedral:        4   5   7   9     -150.000     -150.000
 Hessian Updated using BFGS Update

 21 Hessian modes will be used to form the next step
  Hessian Eigenvalues:
     0.032880    0.045000    0.045000    0.045001    0.045004    0.048980
     0.159791    0.159951    0.160004    0.221325    0.237761    0.249957
     0.296895    0.315458    0.357331    0.359038    0.362956    0.384454
     0.422338    0.472209    0.533779

 Minimum Search - Taking Simple RFO Step
 Searching for Lamda that Minimizes Along All modes
 Value Taken    Lamda =  -0.00006357
 Step Taken.  Stepsize is  0.042402

                             Maximum     Tolerance    Cnvgd?
         Gradient           0.000898      0.000300      NO
         Displacement       0.027691      0.001200      NO
         Energy change     -0.000360      0.000001      NO


 New Cartesian Coordinates Obtained by Inverse Iteration

 Displacement from previous Coordinates is:  0.051036
 ----------------------------------------------------------------
             Standard Nuclear Orientation (Angstroms)
    I     Atom           X                Y                Z
 ----------------------------------------------------------------
    1      S       1.8402651708    -1.1748455552    -0.3147245491
    2      C       3.2074854582    -0.1342348207    -0.0741753965
    3      C       2.8213783484     1.1373938240     0.2605030701
    4      C       1.4056291982     1.2815612410     0.3448656433
    5      C       0.7173300249     0.1184571017     0.0674264162
    6      H       0.9087892574     2.2079704629     0.6114721728
    7      C      -0.7173300249    -0.1184571017     0.0674264162
    8      S      -1.8402651708     1.1748455552    -0.3147245491
    9      C      -1.4056291982    -1.2815612410     0.3448656433
   10      C      -3.2074854582     0.1342348207    -0.0741753965
   11      C      -2.8213783484    -1.1373938240     0.2605030701
   12      H      -3.5219341561    -1.9418478876     0.4540472831
   13      H       4.2094147895    -0.5224124411    -0.1977168947
   14      H       3.5219341561     1.9418478876     0.4540472831
   15      H      -4.2094147895     0.5224124411    -0.1977168947
   16      H      -0.9087892574    -2.2079704629     0.6114721728
 ----------------------------------------------------------------
 Molecular Point Group                 C2    NOp =  2
 Largest Abelian Subgroup              C2    NOp =  2
 Nuclear Repulsion Energy =   628.8161616268 hartrees
 There are       43 alpha and       43 beta electrons
 Applying Cartesian multipole field
    Component          Value
    ---------          -----
     (2,0,0)        1.00000E-11
     (0,2,0)        2.00000E-11
     (0,0,2)       -3.00000E-11
 Nucleus-field energy     =     0.0000000212 hartrees
 Requested basis set is 6-31++G(d,p)
 There are 76 shells and 234 basis functions
 A cutoff of  1.0D-11 yielded   2493 shell pairs
 There are     24631 function pairs
 Smallest overlap matrix eigenvalue = 1.01E-06

 Q-Chem warning in module /project/projectdirs/jcesr/qchem/qc44/cnl_qc441/compile/cori/qc_src/stvman/mkSTV.C, line 257:

 Overlap eigenvalue is smaller than square root of threshold

 Guess MOs from SCF MO coefficient file
 Reading MOs from coefficient file
 Reading MOs from coefficient file
 A restricted hybrid HF-DFT SCF calculation will be
 performed using Pulay DIIS extrapolation
 Exchange:     0.2000 Hartree-Fock + 0.0800 Slater + 0.7200 B88
 Correlation:  0.1900 VWN1RPA + 0.8100 LYP
 Using SG-1 standard quadrature grid
 SCF converges when DIIS error is below 1.0E-08
 Geometry optimization detected.  Setting ReadMinima to 0
 Setting SaveMinima to 0
 ---------------------------------------
  Cycle       Energy         DIIS Error
 ---------------------------------------
    1   -1104.8405654099      1.66E-04
    2   -1104.8407230657      1.56E-05
    3   -1104.8407188730      2.95E-05
    4   -1104.8407256750      4.17E-06
    5   -1104.8407257551      2.82E-06
    6   -1104.8407258140      7.93E-07
    7   -1104.8407258178      1.84E-07
    8   -1104.8407258197      5.67E-08
    9   -1104.8407258220      1.60E-08
   10   -1104.8407258221      2.74E-09 Convergence criterion met
 ---------------------------------------
 SCF time:  CPU 5.20 s  wall 4.58 s
 SCF   energy in the final basis set = -1104.8407258221
 Total energy in the final basis set = -1104.8407258221
 
 --------------------------------------------------------------
             Orbital Energies (a.u.) and Symmetries
 --------------------------------------------------------------
 
 Alpha MOs, Restricted
 -- Occupied --                  
-88.920 -88.920 -10.239 -10.239 -10.225 -10.225 -10.205 -10.205
  1 B     1 A     2 A     2 B     3 B     3 A     4 B     4 A                  
-10.203 -10.203  -7.979  -7.979  -5.943  -5.943  -5.940  -5.940
  5 B     5 A     6 A     6 B     7 A     7 B     8 B     8 A                  
 -5.936  -5.936  -0.900  -0.878  -0.771  -0.749  -0.737  -0.705
  9 B     9 A    10 A    10 B    11 A    11 B    12 A    12 B                  
 -0.604  -0.579  -0.553  -0.534  -0.526  -0.478  -0.420  -0.418
 13 A    13 B    14 A    14 B    15 A    15 B    16 B    16 A                  
 -0.408  -0.405  -0.400  -0.378  -0.374  -0.357  -0.345  -0.278
 17 A    17 B    18 A    19 A    18 B    19 B    20 A    21 A                  
 -0.263  -0.260  -0.215
 20 B    22 A    21 B                                                          
 -- Virtual --                   
 -0.055  -0.006  -0.006  -0.003   0.007   0.009   0.017   0.022
 23 A    22 B    24 A    23 B    25 A    24 B    25 B    26 A                  
  0.031   0.035   0.038   0.047   0.049   0.051   0.059   0.061
 27 A    28 A    26 B    29 A    27 B    30 A    28 B    29 B                  
  0.072   0.082   0.088   0.096   0.099   0.102   0.107   0.109
 30 B    31 A    31 B    32 A    32 B    33 A    34 A    35 A                  
  0.119   0.123   0.129   0.132   0.134   0.137   0.138   0.138
 33 B    34 B    36 A    37 A    35 B    36 B    38 A    37 B                  
  0.148   0.155   0.162   0.165   0.165   0.173   0.178   0.182
 39 A    38 B    39 B    40 A    41 A    40 B    42 A    41 B                  
  0.186   0.192   0.205   0.210   0.213   0.221   0.222   0.225
 43 A    42 B    43 B    44 A    44 B    45 A    45 B    46 A                  
  0.241   0.253   0.257   0.262   0.266   0.277   0.283   0.292
 46 B    47 A    47 B    48 B    48 A    49 A    49 B    50 A                  
  0.312   0.316   0.328   0.342   0.353   0.354   0.378   0.388
 50 B    51 A    51 B    52 A    53 A    52 B    53 B    54 A                  
  0.431   0.455   0.465   0.517   0.518   0.540   0.547   0.566
 54 B    55 B    55 A    56 A    56 B    57 A    57 B    58 B                  
  0.582   0.611   0.616   0.617   0.650   0.657   0.663   0.679
 58 A    59 A    59 B    60 A    60 B    61 B    61 A    62 A                  
  0.679   0.699   0.720   0.727   0.728   0.741   0.752   0.773
 62 B    63 A    63 B    64 A    64 B    65 B    65 A    66 A                  
  0.787   0.817   0.819   0.832   0.843   0.867   0.918   0.941
 66 B    67 A    67 B    68 B    68 A    69 A    69 B    70 A                  
  0.951   0.956   0.957   0.960   0.968   0.990   0.998   1.014
 70 B    71 A    71 B    72 A    72 B    73 A    73 B    74 B                  
  1.018   1.031   1.045   1.065   1.090   1.100   1.116   1.139
 75 B    74 A    75 A    76 A    77 A    76 B    77 B    78 A                  
  1.146   1.177   1.196   1.224   1.247   1.266   1.320   1.342
 78 B    79 A    80 A    79 B    81 A    80 B    81 B    82 A                  
  1.347   1.352   1.359   1.378   1.461   1.467   1.512   1.523
 82 B    83 A    83 B    84 A    85 A    84 B    85 B    86 B                  
  1.573   1.683   1.693   1.738   1.800   1.865   1.868   1.891
 86 A    87 A    87 B    88 A    89 A    90 A    88 B    89 B                  
  1.919   1.920   1.942   1.972   2.006   2.044   2.072   2.093
 91 A    90 B    92 A    91 B    93 A    92 B    94 A    93 B                  
  2.112   2.160   2.175   2.183   2.234   2.242   2.257   2.333
 94 B    95 A    96 A    95 B    97 A    96 B    97 B    98 A                  
  2.363   2.367   2.421   2.452   2.455   2.466   2.493   2.506
 98 B    99 A    99 B   100 A   100 B   101 A   101 B   102 A                  
  2.526   2.533   2.575   2.585   2.603   2.661   2.692   2.718
103 A   102 B   103 B   104 A   104 B   105 A   106 A   105 B                  
  2.747   2.854   2.864   2.917   2.932   3.145   3.201   3.269
106 B   107 A   107 B   108 A   108 B   109 B   109 A   110 B                  
  3.272   3.400   3.427   3.720   3.742   3.973   3.977   4.244
110 A   111 A   111 B   112 A   112 B   113 B   113 A   114 A                  
  4.305   4.317   4.331   4.413   4.538   4.657   4.713
115 A   114 B   115 B   116 A   116 B   117 A   117 B                          
 
 Beta MOs, Restricted
 -- Occupied --                  
-88.920 -88.920 -10.239 -10.239 -10.225 -10.225 -10.205 -10.205
  1 B     1 A     2 A     2 B     3 B     3 A     4 B     4 A                  
-10.203 -10.203  -7.979  -7.979  -5.943  -5.943  -5.940  -5.940
  5 B     5 A     6 A     6 B     7 A     7 B     8 B     8 A                  
 -5.936  -5.936  -0.900  -0.878  -0.771  -0.749  -0.737  -0.705
  9 B     9 A    10 A    10 B    11 A    11 B    12 A    12 B                  
 -0.604  -0.579  -0.553  -0.534  -0.526  -0.478  -0.420  -0.418
 13 A    13 B    14 A    14 B    15 A    15 B    16 B    16 A                  
 -0.408  -0.405  -0.400  -0.378  -0.374  -0.357  -0.345  -0.278
 17 A    17 B    18 A    19 A    18 B    19 B    20 A    21 A                  
 -0.263  -0.260  -0.215
 20 B    22 A    21 B                                                          
 -- Virtual --                   
 -0.055  -0.006  -0.006  -0.003   0.007   0.009   0.017   0.022
 23 A    22 B    24 A    23 B    25 A    24 B    25 B    26 A                  
  0.031   0.035   0.038   0.047   0.049   0.051   0.059   0.061
 27 A    28 A    26 B    29 A    27 B    30 A    28 B    29 B                  
  0.072   0.082   0.088   0.096   0.099   0.102   0.107   0.109
 30 B    31 A    31 B    32 A    32 B    33 A    34 A    35 A                  
  0.119   0.123   0.129   0.132   0.134   0.137   0.138   0.138
 33 B    34 B    36 A    37 A    35 B    36 B    38 A    37 B                  
  0.148   0.155   0.162   0.165   0.165   0.173   0.178   0.182
 39 A    38 B    39 B    40 A    41 A    40 B    42 A    41 B                  
  0.186   0.192   0.205   0.210   0.213   0.221   0.222   0.225
 43 A    42 B    43 B    44 A    44 B    45 A    45 B    46 A                  
  0.241   0.253   0.257   0.262   0.266   0.277   0.283   0.292
 46 B    47 A    47 B    48 B    48 A    49 A    49 B    50 A                  
  0.312   0.316   0.328   0.342   0.353   0.354   0.378   0.388
 50 B    51 A    51 B    52 A    53 A    52 B    53 B    54 A                  
  0.431   0.455   0.465   0.517   0.518   0.540   0.547   0.566
 54 B    55 B    55 A    56 A    56 B    57 A    57 B    58 B                  
  0.582   0.611   0.616   0.617   0.650   0.657   0.663   0.679
 58 A    59 A    59 B    60 A    60 B    61 B    61 A    62 A                  
  0.679   0.699   0.720   0.727   0.728   0.741   0.752   0.773
 62 B    63 A    63 B    64 A    64 B    65 B    65 A    66 A                  
  0.787   0.817   0.819   0.832   0.843   0.867   0.918   0.941
 66 B    67 A    67 B    68 B    68 A    69 A    69 B    70 A                  
  0.951   0.956   0.957   0.960   0.968   0.990   0.998   1.014
 70 B    71 A    71 B    72 A    72 B    73 A    73 B    74 B                  
  1.018   1.031   1.045   1.065   1.090   1.100   1.116   1.139
 75 B    74 A    75 A    76 A    77 A    76 B    77 B    78 A                  
  1.146   1.177   1.196   1.224   1.247   1.266   1.320   1.342
 78 B    79 A    80 A    79 B    81 A    80 B    81 B    82 A                  
  1.347   1.352   1.359   1.378   1.461   1.467   1.512   1.523
 82 B    83 A    83 B    84 A    85 A    84 B    85 B    86 B                  
  1.573   1.683   1.693   1.738   1.800   1.865   1.868   1.891
 86 A    87 A    87 B    88 A    89 A    90 A    88 B    89 B                  
  1.919   1.920   1.942   1.972   2.006   2.044   2.072   2.093
 91 A    90 B    92 A    91 B    93 A    92 B    94 A    93 B                  
  2.112   2.160   2.175   2.183   2.234   2.242   2.257   2.333
 94 B    95 A    96 A    95 B    97 A    96 B    97 B    98 A                  
  2.363   2.367   2.421   2.452   2.455   2.466   2.493   2.506
 98 B    99 A    99 B   100 A   100 B   101 A   101 B   102 A                  
  2.526   2.533   2.575   2.585   2.603   2.661   2.692   2.718
103 A   102 B   103 B   104 A   104 B   105 A   106 A   105 B                  
  2.747   2.854   2.864   2.917   2.932   3.145   3.201   3.269
106 B   107 A   107 B   108 A   108 B   109 B   109 A   110 B                  
  3.272   3.400   3.427   3.720   3.742   3.973   3.977   4.244
110 A   111 A   111 B   112 A   112 B   113 B   113 A   114 A                  
  4.305   4.317   4.331   4.413   4.538   4.657   4.713
115 A   114 B   115 B   116 A   116 B   117 A   117 B                          
 --------------------------------------------------------------
 
          Ground-State Mulliken Net Atomic Charges

     Atom                 Charge (a.u.)
  ----------------------------------------
      1 S                    -0.056834
      2 C                    -0.040466
      3 C                    -0.389195
      4 C                     0.297237
      5 C                    -0.241783
      6 H                     0.128076
      7 C                    -0.241783
      8 S                    -0.056834
      9 C                     0.297237
     10 C                    -0.040466
     11 C                    -0.389195
     12 H                     0.115039
     13 H                     0.187927
     14 H                     0.115039
     15 H                     0.187927
     16 H                     0.128076
  ----------------------------------------
  Sum of atomic charges =    -0.000000

 -----------------------------------------------------------------
                    Cartesian Multipole Moments
 -----------------------------------------------------------------
    Charge (ESU x 10^10)
                -0.0000
    Dipole Moment (Debye)
         X      -0.0000      Y       0.0000      Z       0.3087
       Tot       0.3087
    Quadrupole Moments (Debye-Ang)
        XX     -61.1548     XY       1.5293     YY     -68.6691
        XZ       0.0000     YZ      -0.0000     ZZ     -78.1843
    Octopole Moments (Debye-Ang^2)
       XXX      -0.0000    XXY       0.0000    XYY      -0.0000
       YYY      -0.0000    XXZ      -1.7115    XYZ       6.5637
       YYZ       5.2778    XZZ      -0.0000    YZZ      -0.0000
       ZZZ       0.4758
    Hexadecapole Moments (Debye-Ang^3)
      XXXX   -1888.4832   XXXY     -22.4203   XXYY    -420.9253
      XYYY      15.5476   YYYY    -542.2946   XXXZ       0.0000
      XXYZ       0.0000   XYYZ      -0.0000   YYYZ      -0.0000
      XXZZ    -425.9602   XYZZ      -6.1498   YYZZ    -121.2027
      XZZZ       0.0000   YZZZ      -0.0000   ZZZZ    -138.7446
 -----------------------------------------------------------------
 Calculating analytic gradient of the SCF energy
 Gradient of SCF Energy
            1           2           3           4           5           6
    1  -0.0000300   0.0000135   0.0000771  -0.0000338   0.0000112  -0.0000479
    2  -0.0001760  -0.0001699   0.0002336  -0.0002021   0.0002565   0.0002592
    3  -0.0002829   0.0001255  -0.0002051   0.0012093  -0.0003777  -0.0004890
            7           8           9          10          11          12
    1  -0.0000112   0.0000300   0.0000338  -0.0000135  -0.0000771  -0.0000503
    2  -0.0002565   0.0001760   0.0002021   0.0001699  -0.0002336  -0.0000603
    3  -0.0003777  -0.0002829   0.0012093   0.0001255  -0.0002051   0.0000964
           13          14          15          16
    1   0.0000931   0.0000503  -0.0000931   0.0000479
    2  -0.0000691   0.0000603   0.0000691  -0.0002592
    3  -0.0000767   0.0000964  -0.0000767  -0.0004890
 Max gradient component =       1.209E-03
 RMS gradient           =       3.106E-04
 Gradient time:  CPU 1.90 s  wall 1.91 s
 Geometry Optimization Parameters
   NAtoms,    NIC,     NZ,  NCons,   NDum,   NFix, NCnnct, MaxDiis
       16     111       0       1       0       0       0       0

 Cartesian Hessian Update
 Hessian Updated using BFGS Update


** CONSTRAINED OPTIMIZATION IN DELOCALIZED INTERNAL COORDINATES **
   Searching for a Minimum

   Optimization Cycle:   3

                       Coordinates (Angstroms)
     ATOM                X               Y               Z
      1  S         1.8402651708   -1.1748455552   -0.3147245491
      2  C         3.2074854582   -0.1342348207   -0.0741753965
      3  C         2.8213783484    1.1373938240    0.2605030701
      4  C         1.4056291982    1.2815612410    0.3448656433
      5  C         0.7173300249    0.1184571017    0.0674264162
      6  H         0.9087892574    2.2079704629    0.6114721728
      7  C        -0.7173300249   -0.1184571017    0.0674264162
      8  S        -1.8402651708    1.1748455552   -0.3147245491
      9  C        -1.4056291982   -1.2815612410    0.3448656433
     10  C        -3.2074854582    0.1342348207   -0.0741753965
     11  C        -2.8213783484   -1.1373938240    0.2605030701
     12  H        -3.5219341561   -1.9418478876    0.4540472831
     13  H         4.2094147895   -0.5224124411   -0.1977168947
     14  H         3.5219341561    1.9418478876    0.4540472831
     15  H        -4.2094147895    0.5224124411   -0.1977168947
     16  H        -0.9087892574   -2.2079704629    0.6114721728
   Point Group: c2    Number of degrees of freedom:    22


   Energy is  -1104.840725822

              Constraints and their Current Values
                                        Value     Constraint
   Dihedral:        4   5   7   9     -150.000     -150.000
 Hessian Updated using BFGS Update

 20 Hessian modes will be used to form the next step
  Hessian Eigenvalues:
     0.019773    0.045001    0.045004    0.045528    0.050153    0.159532
     0.159951    0.160087    0.221303    0.242006    0.249721    0.296505
     0.315457    0.357343    0.358886    0.363023    0.384110    0.419141
     0.472840    0.530084

 Minimum Search - Taking Simple RFO Step
 Searching for Lamda that Minimizes Along All modes
 Value Taken    Lamda =  -0.00002368
 Step Taken.  Stepsize is  0.032879

                             Maximum     Tolerance    Cnvgd?
         Gradient           0.000452      0.000300      NO
         Displacement       0.017384      0.001200      NO
         Energy change     -0.000044      0.000001      NO


 New Cartesian Coordinates Obtained by Inverse Iteration

 Displacement from previous Coordinates is:  0.025767
 ----------------------------------------------------------------
             Standard Nuclear Orientation (Angstroms)
    I     Atom           X                Y                Z
 ----------------------------------------------------------------
    1      S       1.8407391017    -1.1745749787    -0.3165130197
    2      C       3.2076186997    -0.1339824457    -0.0750724727
    3      C       2.8209059871     1.1372781385     0.2594607502
    4      C       1.4052079094     1.2815900262     0.3411392752
    5      C       0.7172181060     0.1184295373     0.0636687768
    6      H       0.9082022109     2.2049439890     0.6171432489
    7      C      -0.7172181060    -0.1184295373     0.0636687768
    8      S      -1.8407391017     1.1745749787    -0.3165130197
    9      C      -1.4052079094    -1.2815900262     0.3411392752
   10      C      -3.2076186997     0.1339824457    -0.0750724727
   11      C      -2.8209059871    -1.1372781385     0.2594607502
   12      H      -3.5213255640    -1.9409051611     0.4562968746
   13      H       4.2098775635    -0.5222499331    -0.1944256881
   14      H       3.5213255640     1.9409051611     0.4562968746
   15      H      -4.2098775635     0.5222499331    -0.1944256881
   16      H      -0.9082022109    -2.2049439890     0.6171432489
 ----------------------------------------------------------------
 Molecular Point Group                 C2    NOp =  2
 Largest Abelian Subgroup              C2    NOp =  2
 Nuclear Repulsion Energy =   628.8743623585 hartrees
 There are       43 alpha and       43 beta electrons
 Applying Cartesian multipole field
    Component          Value
    ---------          -----
     (2,0,0)        1.00000E-11
     (0,2,0)        2.00000E-11
     (0,0,2)       -3.00000E-11
 Nucleus-field energy     =     0.0000000212 hartrees
 Requested basis set is 6-31++G(d,p)
 There are 76 shells and 234 basis functions
 A cutoff of  1.0D-11 yielded   2493 shell pairs
 There are     24631 function pairs
 Smallest overlap matrix eigenvalue = 1.00E-06

 Q-Chem warning in module /project/projectdirs/jcesr/qchem/qc44/cnl_qc441/compile/cori/qc_src/stvman/mkSTV.C, line 257:

 Overlap eigenvalue is smaller than square root of threshold

 Guess MOs from SCF MO coefficient file
 Reading MOs from coefficient file
 Reading MOs from coefficient file
 A restricted hybrid HF-DFT SCF calculation will be
 performed using Pulay DIIS extrapolation
 Exchange:     0.2000 Hartree-Fock + 0.0800 Slater + 0.7200 B88
 Correlation:  0.1900 VWN1RPA + 0.8100 LYP
 Using SG-1 standard quadrature grid
 SCF converges when DIIS error is below 1.0E-08
 Geometry optimization detected.  Setting ReadMinima to 0
 Setting SaveMinima to 0
 ---------------------------------------
  Cycle       Energy         DIIS Error
 ---------------------------------------
    1   -1104.8416584703      6.52E-05
    2   -1104.8407383275      6.38E-06
    3   -1104.8407381840      8.95E-06
    4   -1104.8407387673      1.95E-06
    5   -1104.8407387895      1.16E-06
    6   -1104.8407387968      4.27E-07
    7   -1104.8407387965      1.04E-07
    8   -1104.8407388000      3.61E-08
    9   -1104.8407387995      7.20E-09 Convergence criterion met
 ---------------------------------------
 SCF time:  CPU 4.73 s  wall 4.14 s
 SCF   energy in the final basis set = -1104.8407387995
 Total energy in the final basis set = -1104.8407387995
 
 --------------------------------------------------------------
             Orbital Energies (a.u.) and Symmetries
 --------------------------------------------------------------
 
 Alpha MOs, Restricted
 -- Occupied --                  
-88.920 -88.920 -10.239 -10.238 -10.225 -10.225 -10.205 -10.205
  1 B     1 A     2 A     2 B     3 B     3 A     4 B     4 A                  
-10.203 -10.203  -7.979  -7.979  -5.943  -5.943  -5.940  -5.940
  5 B     5 A     6 A     6 B     7 A     7 B     8 B     8 A                  
 -5.936  -5.936  -0.900  -0.878  -0.771  -0.749  -0.737  -0.706
  9 B     9 A    10 A    10 B    11 A    11 B    12 A    12 B                  
 -0.604  -0.579  -0.553  -0.534  -0.526  -0.478  -0.420  -0.418
 13 A    13 B    14 A    14 B    15 A    15 B    16 B    16 A                  
 -0.408  -0.405  -0.400  -0.378  -0.374  -0.357  -0.345  -0.278
 17 A    17 B    18 A    19 A    18 B    19 B    20 A    21 A                  
 -0.263  -0.260  -0.215
 20 B    22 A    21 B                                                          
 -- Virtual --                   
 -0.055  -0.006  -0.006  -0.002   0.007   0.009   0.017   0.022
 23 A    22 B    24 A    23 B    25 A    24 B    25 B    26 A                  
  0.031   0.035   0.038   0.047   0.049   0.051   0.059   0.061
 27 A    28 A    26 B    29 A    27 B    30 A    28 B    29 B                  
  0.072   0.082   0.088   0.096   0.099   0.102   0.107   0.109
 30 B    31 A    31 B    32 A    32 B    33 A    34 A    35 A                  
  0.119   0.123   0.129   0.132   0.134   0.137   0.138   0.138
 33 B    34 B    36 A    37 A    35 B    36 B    38 A    37 B                  
  0.148   0.156   0.162   0.164   0.165   0.173   0.178   0.182
 39 A    38 B    39 B    40 A    41 A    40 B    42 A    41 B                  
  0.186   0.192   0.205   0.209   0.213   0.221   0.222   0.225
 43 A    42 B    43 B    44 A    44 B    45 A    45 B    46 A                  
  0.241   0.253   0.257   0.262   0.266   0.277   0.283   0.292
 46 B    47 A    47 B    48 B    48 A    49 A    49 B    50 A                  
  0.312   0.316   0.328   0.342   0.354   0.354   0.378   0.388
 50 B    51 A    51 B    52 A    53 A    52 B    53 B    54 A                  
  0.431   0.454   0.465   0.518   0.518   0.540   0.546   0.567
 54 B    55 B    55 A    56 A    56 B    57 A    57 B    58 B                  
  0.582   0.612   0.616   0.617   0.650   0.657   0.663   0.679
 58 A    59 A    59 B    60 A    60 B    61 B    61 A    62 A                  
  0.679   0.699   0.720   0.727   0.729   0.741   0.753   0.773
 62 B    63 A    63 B    64 A    64 B    65 B    65 A    66 A                  
  0.788   0.817   0.819   0.832   0.843   0.867   0.918   0.941
 66 B    67 A    67 B    68 B    68 A    69 A    69 B    70 A                  
  0.950   0.957   0.958   0.961   0.968   0.990   0.997   1.014
 70 B    71 A    71 B    72 A    72 B    73 A    73 B    74 B                  
  1.018   1.031   1.046   1.065   1.091   1.100   1.116   1.138
 75 B    74 A    75 A    76 A    77 A    76 B    77 B    78 A                  
  1.146   1.177   1.196   1.224   1.246   1.267   1.318   1.341
 78 B    79 A    80 A    79 B    81 A    80 B    81 B    82 A                  
  1.349   1.352   1.359   1.378   1.464   1.465   1.513   1.525
 82 B    83 A    83 B    84 A    84 B    85 A    85 B    86 B                  
  1.570   1.684   1.693   1.737   1.801   1.865   1.868   1.891
 86 A    87 A    87 B    88 A    89 A    90 A    88 B    89 B                  
  1.919   1.921   1.942   1.972   2.006   2.044   2.072   2.093
 91 A    90 B    92 A    91 B    93 A    92 B    94 A    93 B                  
  2.113   2.159   2.176   2.183   2.234   2.243   2.257   2.333
 94 B    95 A    96 A    95 B    97 A    96 B    97 B    98 A                  
  2.364   2.367   2.421   2.452   2.454   2.466   2.493   2.506
 98 B    99 A    99 B   100 A   100 B   101 A   101 B   102 A                  
  2.528   2.534   2.575   2.585   2.603   2.662   2.692   2.719
103 A   102 B   103 B   104 A   104 B   105 A   106 A   105 B                  
  2.747   2.854   2.864   2.918   2.933   3.145   3.201   3.269
106 B   107 A   107 B   108 A   108 B   109 B   109 A   110 B                  
  3.273   3.401   3.427   3.720   3.742   3.973   3.977   4.245
110 A   111 A   111 B   112 A   112 B   113 B   113 A   114 A                  
  4.306   4.317   4.331   4.413   4.538   4.657   4.713
115 A   114 B   115 B   116 A   116 B   117 A   117 B                          
 
 Beta MOs, Restricted
 -- Occupied --                  
-88.920 -88.920 -10.239 -10.238 -10.225 -10.225 -10.205 -10.205
  1 B     1 A     2 A     2 B     3 B     3 A     4 B     4 A                  
-10.203 -10.203  -7.979  -7.979  -5.943  -5.943  -5.940  -5.940
  5 B     5 A     6 A     6 B     7 A     7 B     8 B     8 A                  
 -5.936  -5.936  -0.900  -0.878  -0.771  -0.749  -0.737  -0.706
  9 B     9 A    10 A    10 B    11 A    11 B    12 A    12 B                  
 -0.604  -0.579  -0.553  -0.534  -0.526  -0.478  -0.420  -0.418
 13 A    13 B    14 A    14 B    15 A    15 B    16 B    16 A                  
 -0.408  -0.405  -0.400  -0.378  -0.374  -0.357  -0.345  -0.278
 17 A    17 B    18 A    19 A    18 B    19 B    20 A    21 A                  
 -0.263  -0.260  -0.215
 20 B    22 A    21 B                                                          
 -- Virtual --                   
 -0.055  -0.006  -0.006  -0.002   0.007   0.009   0.017   0.022
 23 A    22 B    24 A    23 B    25 A    24 B    25 B    26 A                  
  0.031   0.035   0.038   0.047   0.049   0.051   0.059   0.061
 27 A    28 A    26 B    29 A    27 B    30 A    28 B    29 B                  
  0.072   0.082   0.088   0.096   0.099   0.102   0.107   0.109
 30 B    31 A    31 B    32 A    32 B    33 A    34 A    35 A                  
  0.119   0.123   0.129   0.132   0.134   0.137   0.138   0.138
 33 B    34 B    36 A    37 A    35 B    36 B    38 A    37 B                  
  0.148   0.156   0.162   0.164   0.165   0.173   0.178   0.182
 39 A    38 B    39 B    40 A    41 A    40 B    42 A    41 B                  
  0.186   0.192   0.205   0.209   0.213   0.221   0.222   0.225
 43 A    42 B    43 B    44 A    44 B    45 A    45 B    46 A                  
  0.241   0.253   0.257   0.262   0.266   0.277   0.283   0.292
 46 B    47 A    47 B    48 B    48 A    49 A    49 B    50 A                  
  0.312   0.316   0.328   0.342   0.354   0.354   0.378   0.388
 50 B    51 A    51 B    52 A    53 A    52 B    53 B    54 A                  
  0.431   0.454   0.465   0.518   0.518   0.540   0.546   0.567
 54 B    55 B    55 A    56 A    56 B    57 A    57 B    58 B                  
  0.582   0.612   0.616   0.617   0.650   0.657   0.663   0.679
 58 A    59 A    59 B    60 A    60 B    61 B    61 A    62 A                  
  0.679   0.699   0.720   0.727   0.729   0.741   0.753   0.773
 62 B    63 A    63 B    64 A    64 B    65 B    65 A    66 A                  
  0.788   0.817   0.819   0.832   0.843   0.867   0.918   0.941
 66 B    67 A    67 B    68 B    68 A    69 A    69 B    70 A                  
  0.950   0.957   0.958   0.961   0.968   0.990   0.997   1.014
 70 B    71 A    71 B    72 A    72 B    73 A    73 B    74 B                  
  1.018   1.031   1.046   1.065   1.091   1.100   1.116   1.138
 75 B    74 A    75 A    76 A    77 A    76 B    77 B    78 A                  
  1.146   1.177   1.196   1.224   1.246   1.267   1.318   1.341
 78 B    79 A    80 A    79 B    81 A    80 B    81 B    82 A                  
  1.349   1.352   1.359   1.378   1.464   1.465   1.513   1.525
 82 B    83 A    83 B    84 A    84 B    85 A    85 B    86 B                  
  1.570   1.684   1.693   1.737   1.801   1.865   1.868   1.891
 86 A    87 A    87 B    88 A    89 A    90 A    88 B    89 B                  
  1.919   1.921   1.942   1.972   2.006   2.044   2.072   2.093
 91 A    90 B    92 A    91 B    93 A    92 B    94 A    93 B                  
  2.113   2.159   2.176   2.183   2.234   2.243   2.257   2.333
 94 B    95 A    96 A    95 B    97 A    96 B    97 B    98 A                  
  2.364   2.367   2.421   2.452   2.454   2.466   2.493   2.506
 98 B    99 A    99 B   100 A   100 B   101 A   101 B   102 A                  
  2.528   2.534   2.575   2.585   2.603   2.662   2.692   2.719
103 A   102 B   103 B   104 A   104 B   105 A   106 A   105 B                  
  2.747   2.854   2.864   2.918   2.933   3.145   3.201   3.269
106 B   107 A   107 B   108 A   108 B   109 B   109 A   110 B                  
  3.273   3.401   3.427   3.720   3.742   3.973   3.977   4.245
110 A   111 A   111 B   112 A   112 B   113 B   113 A   114 A                  
  4.306   4.317   4.331   4.413   4.538   4.657   4.713
115 A   114 B   115 B   116 A   116 B   117 A   117 B                          
 --------------------------------------------------------------
 
          Ground-State Mulliken Net Atomic Charges

     Atom                 Charge (a.u.)
  ----------------------------------------
      1 S                    -0.058322
      2 C                    -0.038863
      3 C                    -0.392214
      4 C                     0.305691
      5 C                    -0.247726
      6 H                     0.128542
      7 C                    -0.247726
      8 S                    -0.058322
      9 C                     0.305691
     10 C                    -0.038863
     11 C                    -0.392214
     12 H                     0.114949
     13 H                     0.187943
     14 H                     0.114949
     15 H                     0.187943
     16 H                     0.128542
  ----------------------------------------
  Sum of atomic charges =     0.000000

 -----------------------------------------------------------------
                    Cartesian Multipole Moments
 -----------------------------------------------------------------
    Charge (ESU x 10^10)
                 0.0000
    Dipole Moment (Debye)
         X      -0.0000      Y       0.0000      Z       0.3363
       Tot       0.3363
    Quadrupole Moments (Debye-Ang)
        XX     -61.1431     XY       1.5133     YY     -68.7020
        XZ      -0.0000     YZ      -0.0000     ZZ     -78.1597
    Octopole Moments (Debye-Ang^2)
       XXX      -0.0000    XXY       0.0000    XYY      -0.0000
       YYY       0.0000    XXZ      -1.3364    XYZ       6.5908
       YYZ       5.5183    XZZ      -0.0000    YZZ       0.0000
       ZZZ       0.9495
    Hexadecapole Moments (Debye-Ang^3)
[...]
  3.273   3.401   3.427   3.721   3.743   3.973   3.977   4.245
110 A   111 A   111 B   112 A   112 B   113 B   113 A   114 A                  
  4.306   4.317   4.331   4.413   4.538   4.657   4.713
115 A   114 B   115 B   116 A   116 B   117 A   117 B                          
 --------------------------------------------------------------
 
          Ground-State Mulliken Net Atomic Charges

     Atom                 Charge (a.u.)
  ----------------------------------------
      1 S                    -0.058224
      2 C                    -0.038830
      3 C                    -0.392343
      4 C                     0.306322
      5 C                    -0.248421
      6 H                     0.128632
      7 C                    -0.248421
      8 S                    -0.058224
      9 C                     0.306322
     10 C                    -0.038830
     11 C                    -0.392343
     12 H                     0.114928
     13 H                     0.187937
     14 H                     0.114928
     15 H                     0.187937
     16 H                     0.128632
  ----------------------------------------
  Sum of atomic charges =     0.000000

 -----------------------------------------------------------------
                    Cartesian Multipole Moments
 -----------------------------------------------------------------
    Charge (ESU x 10^10)
                 0.0000
    Dipole Moment (Debye)
         X      -0.0000      Y      -0.0000      Z       0.3318
       Tot       0.3318
    Quadrupole Moments (Debye-Ang)
        XX     -61.1493     XY       1.5202     YY     -68.7019
        XZ       0.0000     YZ      -0.0000     ZZ     -78.1532
    Octopole Moments (Debye-Ang^2)
       XXX      -0.0000    XXY      -0.0000    XYY      -0.0000
       YYY      -0.0000    XXZ      -1.5517    XYZ       6.5766
       YYZ       5.4941    XZZ      -0.0000    YZZ      -0.0000
       ZZZ       0.8516
    Hexadecapole Moments (Debye-Ang^3)
      XXXX   -1887.9721   XXXY     -22.4209   XXYY    -420.8527
      XYYY      15.4126   YYYY    -542.3739   XXXZ       0.0000
      XXYZ      -0.0000   XYYZ      -0.0000   YYYZ      -0.0000
      XXZZ    -425.8713   XYZZ      -6.0713   YYZZ    -121.0425
      XZZZ       0.0000   YZZZ      -0.0000   ZZZZ    -138.7538
 -----------------------------------------------------------------
 Calculating analytic gradient of the SCF energy
 Gradient of SCF Energy
            1           2           3           4           5           6
    1   0.0000055  -0.0000034  -0.0000066   0.0000262  -0.0000418   0.0000078
    2   0.0000086   0.0000067  -0.0000135  -0.0001125   0.0002163  -0.0000107
    3   0.0000358  -0.0000113  -0.0000303   0.0003650  -0.0003860   0.0000050
            7           8           9          10          11          12
    1   0.0000418  -0.0000055  -0.0000262   0.0000034   0.0000066  -0.0000013
    2  -0.0002163  -0.0000086   0.0001125  -0.0000067   0.0000135   0.0000226
    3  -0.0003860   0.0000358   0.0003650  -0.0000113  -0.0000303   0.0000199
           13          14          15          16
    1  -0.0000083   0.0000013   0.0000083  -0.0000078
    2  -0.0000084  -0.0000226   0.0000084   0.0000107
    3   0.0000018   0.0000199   0.0000018   0.0000050
 Max gradient component =       3.860E-04
 RMS gradient           =       1.204E-04
 Gradient time:  CPU 1.98 s  wall 1.91 s
 Geometry Optimization Parameters
   NAtoms,    NIC,     NZ,  NCons,   NDum,   NFix, NCnnct, MaxDiis
       16     111       0       1       0       0       0       0

 Cartesian Hessian Update
 Hessian Updated using BFGS Update


** CONSTRAINED OPTIMIZATION IN DELOCALIZED INTERNAL COORDINATES **
   Searching for a Minimum

   Optimization Cycle:   6

                       Coordinates (Angstroms)
     ATOM                X               Y               Z
      1  S         1.8403393951   -1.1747179980   -0.3158878145
      2  C         3.2072267079   -0.1338424540   -0.0762443385
      3  C         2.8208694258    1.1371396241    0.2594705891
      4  C         1.4053394334    1.2813128600    0.3426206530
      5  C         0.7171972301    0.1183161825    0.0651654035
      6  H         0.9086299680    2.2039253812    0.6215675398
      7  C        -0.7171972301   -0.1183161825    0.0651654035
      8  S        -1.8403393951    1.1747179980   -0.3158878145
      9  C        -1.4053394334   -1.2813128600    0.3426206530
     10  C        -3.2072267079    0.1338424540   -0.0762443385
     11  C        -2.8208694258   -1.1371396241    0.2594705891
     12  H        -3.5213556190   -1.9414160097    0.4531978223
     13  H         4.2092348332   -0.5218257557   -0.1981921096
     14  H         3.5213556190    1.9414160097    0.4531978223
     15  H        -4.2092348332    0.5218257557   -0.1981921096
     16  H        -0.9086299680   -2.2039253812    0.6215675398
   Point Group: c2    Number of degrees of freedom:    22


   Energy is  -1104.840740413

              Constraints and their Current Values
                                        Value     Constraint
   Dihedral:        4   5   7   9     -150.000     -150.000
 Hessian Updated using BFGS Update

 21 Hessian modes will be used to form the next step
  Hessian Eigenvalues:
     0.014373    0.024538    0.045001    0.045020    0.045452    0.051711
     0.159681    0.159940    0.160361    0.222256    0.249470    0.268375
     0.296558    0.316135    0.357446    0.359429    0.363182    0.385568
     0.442664    0.475319    0.532857

 Minimum Search - Taking Simple RFO Step
 Searching for Lamda that Minimizes Along All modes
 Value Taken    Lamda =   0.00000000
 Step Taken.  Stepsize is  0.001678

                             Maximum     Tolerance    Cnvgd?
         Gradient           0.000040      0.000300     YES
         Displacement       0.000907      0.001200     YES
         Energy change     -0.000000      0.000001     YES

 Final energy is   -1104.84074041344     


 ******************************
 **  OPTIMIZATION CONVERGED  **
 ******************************

                       Coordinates (Angstroms)
     ATOM                X               Y               Z
      1  S         1.8403393951   -1.1747179980   -0.3158878145
      2  C         3.2072267079   -0.1338424540   -0.0762443385
      3  C         2.8208694258    1.1371396241    0.2594705891
      4  C         1.4053394334    1.2813128600    0.3426206530
      5  C         0.7171972301    0.1183161825    0.0651654035
      6  H         0.9086299680    2.2039253812    0.6215675398
      7  C        -0.7171972301   -0.1183161825    0.0651654035
      8  S        -1.8403393951    1.1747179980   -0.3158878145
      9  C        -1.4053394334   -1.2813128600    0.3426206530
     10  C        -3.2072267079    0.1338424540   -0.0762443385
     11  C        -2.8208694258   -1.1371396241    0.2594705891
     12  H        -3.5213556190   -1.9414160097    0.4531978223
     13  H         4.2092348332   -0.5218257557   -0.1981921096
     14  H         3.5213556190    1.9414160097    0.4531978223
     15  H        -4.2092348332    0.5218257557   -0.1981921096
     16  H        -0.9086299680   -2.2039253812    0.6215675398

Z-matrix Print:
$molecule
0 1
S 
C  1 1.734714
H  2 1.081398 1 119.950902
C  2 1.370172 1 111.607776 3 -179.944857 0
H  4 1.084007 2 123.353986 1 -179.932663 0
C  4 1.425281 2 112.840909 1 -0.688784 0
H  6 1.084318 4 123.781550 2 -178.266480 0
C  6 1.379523 4 113.478375 2 0.196882 0
C  8 1.453782 6 129.005594 4 -179.292869 0
C  9 1.379523 8 129.005594 6 150.000024 0
H  10 1.084318 9 122.721403 8 -0.810972 0
C  10 1.425281 9 113.478375 8 -179.292869 0
H  12 1.084007 10 123.800484 9 179.436840 0
C  12 1.370172 10 112.840909 9 0.196882 0
H  14 1.081398 12 128.441295 10 179.372217 0
S  14 1.734714 12 111.607776 10 -0.688784 0
$end

 
 --------------------------------------------------------------
             Orbital Energies (a.u.) and Symmetries
 --------------------------------------------------------------
 
 Alpha MOs, Restricted
 -- Occupied --                  
-88.920 -88.920 -10.239 -10.238 -10.225 -10.225 -10.204 -10.204
  1 B     1 A     2 A     2 B     3 B     3 A     4 B     4 A                  
-10.203 -10.203  -7.979  -7.979  -5.943  -5.943  -5.940  -5.940
  5 B     5 A     6 A     6 B     7 A     7 B     8 B     8 A                  
 -5.936  -5.936  -0.900  -0.878  -0.771  -0.749  -0.738  -0.706
  9 B     9 A    10 A    10 B    11 A    11 B    12 A    12 B                  
 -0.604  -0.579  -0.553  -0.534  -0.526  -0.478  -0.420  -0.418
 13 A    13 B    14 A    14 B    15 A    15 B    16 B    16 A                  
 -0.408  -0.405  -0.400  -0.378  -0.374  -0.357  -0.345  -0.278
 17 A    17 B    18 A    19 A    18 B    19 B    20 A    21 A                  
 -0.263  -0.260  -0.215
 20 B    22 A    21 B                                                          
 -- Virtual --                   
 -0.055  -0.006  -0.006  -0.003   0.007   0.009   0.017   0.022
 23 A    22 B    24 A    23 B    25 A    24 B    25 B    26 A                  
  0.031   0.035   0.038   0.047   0.049   0.051   0.059   0.061
 27 A    28 A    26 B    29 A    27 B    30 A    28 B    29 B                  
  0.072   0.082   0.088   0.096   0.099   0.102   0.107   0.109
 30 B    31 A    31 B    32 A    32 B    33 A    34 A    35 A                  
  0.119   0.123   0.129   0.132   0.134   0.137   0.138   0.138
 33 B    34 B    36 A    37 A    35 B    36 B    38 A    37 B                  
  0.148   0.156   0.162   0.164   0.165   0.173   0.178   0.182
 39 A    38 B    39 B    40 A    41 A    40 B    42 A    41 B                  
  0.186   0.192   0.205   0.210   0.213   0.221   0.222   0.225
 43 A    42 B    43 B    44 A    44 B    45 A    45 B    46 A                  
  0.241   0.253   0.257   0.263   0.266   0.277   0.283   0.292
 46 B    47 A    47 B    48 B    48 A    49 A    49 B    50 A                  
  0.312   0.316   0.328   0.342   0.354   0.354   0.378   0.388
 50 B    51 A    51 B    52 A    53 A    52 B    53 B    54 A                  
  0.431   0.454   0.465   0.518   0.519   0.541   0.546   0.567
 54 B    55 B    55 A    56 A    56 B    57 A    57 B    58 B                  
  0.582   0.612   0.616   0.617   0.650   0.658   0.663   0.679
 58 A    59 A    59 B    60 A    60 B    61 B    61 A    62 B                  
  0.679   0.699   0.720   0.727   0.729   0.741   0.753   0.773
 62 A    63 A    63 B    64 A    64 B    65 B    65 A    66 A                  
  0.788   0.817   0.819   0.832   0.843   0.867   0.918   0.941
 66 B    67 A    67 B    68 B    68 A    69 A    69 B    70 A                  
  0.949   0.957   0.958   0.961   0.968   0.990   0.997   1.014
 70 B    71 A    71 B    72 A    72 B    73 A    73 B    74 B                  
  1.018   1.031   1.046   1.065   1.091   1.100   1.116   1.138
 75 B    74 A    75 A    76 A    77 A    76 B    77 B    78 A                  
  1.146   1.177   1.196   1.224   1.245   1.267   1.318   1.342
 78 B    79 A    80 A    79 B    81 A    80 B    81 B    82 A                  
  1.349   1.352   1.359   1.377   1.463   1.466   1.513   1.525
 82 B    83 A    83 B    84 A    84 B    85 A    85 B    86 B                  
  1.570   1.684   1.693   1.737   1.801   1.865   1.868   1.891
 86 A    87 A    87 B    88 A    89 A    90 A    88 B    89 B                  
  1.919   1.921   1.943   1.972   2.006   2.044   2.073   2.093
 91 A    90 B    92 A    91 B    93 A    92 B    94 A    93 B                  
  2.113   2.159   2.176   2.183   2.234   2.243   2.257   2.333
 94 B    95 A    96 A    95 B    97 A    96 B    97 B    98 A                  
  2.364   2.367   2.421   2.452   2.455   2.466   2.493   2.506
 98 B    99 A    99 B   100 A   100 B   101 A   101 B   102 A                  
  2.528   2.534   2.576   2.585   2.604   2.662   2.692   2.719
103 A   102 B   103 B   104 A   104 B   105 A   106 A   105 B                  
  2.747   2.854   2.864   2.918   2.933   3.146   3.201   3.269
106 B   107 A   107 B   108 A   108 B   109 B   109 A   110 B                  
  3.273   3.401   3.427   3.721   3.743   3.973   3.977   4.245
110 A   111 A   111 B   112 A   112 B   113 B   113 A   114 A                  
  4.306   4.317   4.331   4.413   4.538   4.657   4.713
115 A   114 B   115 B   116 A   116 B   117 A   117 B                          
 
 Beta MOs, Restricted
 -- Occupied --                  
-88.920 -88.920 -10.239 -10.238 -10.225 -10.225 -10.204 -10.204
  1 B     1 A     2 A     2 B     3 B     3 A     4 B     4 A                  
-10.203 -10.203  -7.979  -7.979  -5.943  -5.943  -5.940  -5.940
  5 B     5 A     6 A     6 B     7 A     7 B     8 B     8 A                  
 -5.936  -5.936  -0.900  -0.878  -0.771  -0.749  -0.738  -0.706
  9 B     9 A    10 A    10 B    11 A    11 B    12 A    12 B                  
 -0.604  -0.579  -0.553  -0.534  -0.526  -0.478  -0.420  -0.418
 13 A    13 B    14 A    14 B    15 A    15 B    16 B    16 A                  
 -0.408  -0.405  -0.400  -0.378  -0.374  -0.357  -0.345  -0.278
 17 A    17 B    18 A    19 A    18 B    19 B    20 A    21 A                  
 -0.263  -0.260  -0.215
 20 B    22 A    21 B                                                          
 -- Virtual --                   
 -0.055  -0.006  -0.006  -0.003   0.007   0.009   0.017   0.022
 23 A    22 B    24 A    23 B    25 A    24 B    25 B    26 A                  
  0.031   0.035   0.038   0.047   0.049   0.051   0.059   0.061
 27 A    28 A    26 B    29 A    27 B    30 A    28 B    29 B                  
  0.072   0.082   0.088   0.096   0.099   0.102   0.107   0.109
 30 B    31 A    31 B    32 A    32 B    33 A    34 A    35 A                  
  0.119   0.123   0.129   0.132   0.134   0.137   0.138   0.138
 33 B    34 B    36 A    37 A    35 B    36 B    38 A    37 B                  
  0.148   0.156   0.162   0.164   0.165   0.173   0.178   0.182
 39 A    38 B    39 B    40 A    41 A    40 B    42 A    41 B                  
  0.186   0.192   0.205   0.210   0.213   0.221   0.222   0.225
 43 A    42 B    43 B    44 A    44 B    45 A    45 B    46 A                  
  0.241   0.253   0.257   0.263   0.266   0.277   0.283   0.292
 46 B    47 A    47 B    48 B    48 A    49 A    49 B    50 A                  
  0.312   0.316   0.328   0.342   0.354   0.354   0.378   0.388
 50 B    51 A    51 B    52 A    53 A    52 B    53 B    54 A                  
  0.431   0.454   0.465   0.518   0.519   0.541   0.546   0.567
 54 B    55 B    55 A    56 A    56 B    57 A    57 B    58 B                  
  0.582   0.612   0.616   0.617   0.650   0.658   0.663   0.679
 58 A    59 A    59 B    60 A    60 B    61 B    61 A    62 B                  
  0.679   0.699   0.720   0.727   0.729   0.741   0.753   0.773
 62 A    63 A    63 B    64 A    64 B    65 B    65 A    66 A                  
  0.788   0.817   0.819   0.832   0.843   0.867   0.918   0.941
 66 B    67 A    67 B    68 B    68 A    69 A    69 B    70 A                  
  0.949   0.957   0.958   0.961   0.968   0.990   0.997   1.014
 70 B    71 A    71 B    72 A    72 B    73 A    73 B    74 B                  
  1.018   1.031   1.046   1.065   1.091   1.100   1.116   1.138
 75 B    74 A    75 A    76 A    77 A    76 B    77 B    78 A                  
  1.146   1.177   1.196   1.224   1.245   1.267   1.318   1.342
 78 B    79 A    80 A    79 B    81 A    80 B    81 B    82 A                  
  1.349   1.352   1.359   1.377   1.463   1.466   1.513   1.525
 82 B    83 A    83 B    84 A    84 B    85 A    85 B    86 B                  
  1.570   1.684   1.693   1.737   1.801   1.865   1.868   1.891
 86 A    87 A    87 B    88 A    89 A    90 A    88 B    89 B                  
  1.919   1.921   1.943   1.972   2.006   2.044   2.073   2.093
 91 A    90 B    92 A    91 B    93 A    92 B    94 A    93 B                  
  2.113   2.159   2.176   2.183   2.234   2.243   2.257   2.333
 94 B    95 A    96 A    95 B    97 A    96 B    97 B    98 A                  
  2.364   2.367   2.421   2.452   2.455   2.466   2.493   2.506
 98 B    99 A    99 B   100 A   100 B   101 A   101 B   102 A                  
  2.528   2.534   2.576   2.585   2.604   2.662   2.692   2.719
103 A   102 B   103 B   104 A   104 B   105 A   106 A   105 B                  
  2.747   2.854   2.864   2.918   2.933   3.146   3.201   3.269
106 B   107 A   107 B   108 A   108 B   109 B   109 A   110 B                  
  3.273   3.401   3.427   3.721   3.743   3.973   3.977   4.245
110 A   111 A   111 B   112 A   112 B   113 B   113 A   114 A                  
  4.306   4.317   4.331   4.413   4.538   4.657   4.713
115 A   114 B   115 B   116 A   116 B   117 A   117 B                          
 --------------------------------------------------------------
 
          Ground-State Mulliken Net Atomic Charges

     Atom                 Charge (a.u.)
  ----------------------------------------
      1 S                    -0.058224
      2 C                    -0.038830
      3 C                    -0.392343
      4 C                     0.306322
      5 C                    -0.248421
      6 H                     0.128632
      7 C                    -0.248421
      8 S                    -0.058224
      9 C                     0.306322
     10 C                    -0.038830
     11 C                    -0.392343
     12 H                     0.114928
     13 H                     0.187937
     14 H                     0.114928
     15 H                     0.187937
     16 H                     0.128632
  ----------------------------------------
  Sum of atomic charges =     0.000000

 -----------------------------------------------------------------
                    Cartesian Multipole Moments
 -----------------------------------------------------------------
    Charge (ESU x 10^10)
                 0.0000
    Dipole Moment (Debye)
         X      -0.0000      Y      -0.0000      Z       0.3318
       Tot       0.3318
    Quadrupole Moments (Debye-Ang)
        XX     -61.1493     XY       1.5202     YY     -68.7019
        XZ       0.0000     YZ      -0.0000     ZZ     -78.1532
    Octopole Moments (Debye-Ang^2)
       XXX      -0.0000    XXY      -0.0000    XYY      -0.0000
       YYY      -0.0000    XXZ      -1.5517    XYZ       6.5766
       YYZ       5.4941    XZZ      -0.0000    YZZ      -0.0000
       ZZZ       0.8516
    Hexadecapole Moments (Debye-Ang^3)
      XXXX   -1887.9721   XXXY     -22.4209   XXYY    -420.8527
      XYYY      15.4126   YYYY    -542.3739   XXXZ       0.0000
      XXYZ      -0.0000   XYYZ      -0.0000   YYYZ      -0.0000
      XXZZ    -425.8713   XYZZ      -6.0713   YYZZ    -121.0425
      XZZZ       0.0000   YZZZ      -0.0000   ZZZZ    -138.7538
 -----------------------------------------------------------------
Archival summary:
1\1\nid01044\OPT\ProcedureUnspecified\BasisUnspecified\286\FriSep218:30:272016FriSep218:30:272016\0\\#,OPT,ProcedureUnspecified,BasisUnspecified,\\0,1\S\C,1,1.73471\H,2,1.0814,1,119.951\C,2,1.37017,1,111.608,3,-179.945,0\H,4,1.08401,2,123.354,1,-179.933,0\C,4,1.42528,2,112.841,1,-0.688784,0\H,6,1.08432,4,123.782,2,-178.266,0\C,6,1.37952,4,113.478,2,0.196882,0\C,8,1.45378,6,129.006,4,-179.293,0\C,9,1.37952,8,129.006,6,150,0\H,10,1.08432,9,122.721,8,-0.810972,0\C,10,1.42528,9,113.478,8,-179.293,0\H,12,1.08401,10,123.8,9,179.437,0\C,12,1.37017,10,112.841,9,0.196882,0\H,14,1.0814,12,128.441,10,179.372,0\S,14,1.73471,12,111.608,10,-0.688784,0\\\@

 Total job time:  61.53s(wall), 69.78s(cpu) 
 Fri Sep  2 18:30:27 2016

        *************************************************************
        *                                                           *
        *  Thank you very much for using Q-Chem.  Have a nice day.  *
        *                                                           *
        *************************************************************


0 sent ACK to 0 
now end server 0 ... 
