srun -N 1 --ntasks-per-node 16 --nodelist nid01043 /global/project/projectdirs/jcesr/qchem/qc44/cnl_qc441/dist/exe/qcprog.cori.exe .pt_dft_120.0.in.55684.qcin.1 /dev/shm/eg_qchem/qchem55684/
Process 0 of 16 is on nid01043 - thread support 0
Process 1 of 16 is on nid01043 - thread support 0
Process 2 of 16 is on nid01043 - thread support 0
Process 3 of 16 is on nid01043 - thread support 0
Process 4 of 16 is on nid01043 - thread support 0
Process 5 of 16 is on nid01043 - thread support 0
Process 6 of 16 is on nid01043 - thread support 0
initial socket setup ...start
Process 15 of 16 is on nid01043 - thread support 0
initial socket setup ...done 
now start server 0 ... 
nid01043 10.128.4
Q-Chem Developer Version! Running on 10.128.4.*
                  Welcome to Q-Chem
     A Quantum Leap Into The Future Of Chemistry


 Q-Chem 4.4, Q-Chem, Inc., Pleasanton, CA (2016)

 Y. Shao,  Z. Gan,  E. Epifanovsky,  A. T. B. Gilbert,  M. Wormit,  
 J. Kussmann,  A. W. Lange,  A. Behn,  J. Deng,  X. Feng,  D. Ghosh,  
 M. Goldey,  P. R. Horn,  L. D. Jacobson,  I. Kaliman,  F.Rob,  
 R. Z. Khaliullin,  T. Kus,  A. Landau,  J. Liu,  E. I. Proynov,  Y. M. Rhee,  
 R. M. Richard,  M. A. Rohrdanz,  R. P. Steele,  E. J. Sundstrom,  
 H. L. Woodcock III,  P. M. Zimmerman,  D. Zuev,  B. Albrecht,  E. Alguire,  
 B. Austin,  S. A. Baeppler,  G. J. O. Beran,  Y. A. Bernard,  E. Berquist,  
 K. Brandhorst,  K. B. Bravaya,  S. T. Brown,  D. Casanova,  C.-M. Chang,  
 Y. Chen,  S. H. Chien,  K. D. Closser,  M. P. Coons,  D. L. Crittenden,  
 S. Dasgupta,  M. Diedenhofen,  R. A. DiStasio Jr.,  H. Do,  A. D. Dutoi,  
 R. G. Edgar,  P.-T. Fang,  S. Fatehi,  Q. Feng,  L. Fusti-Molnar,  
 A. Ghysels,  A. Golubeva-Zadorozhnaya,  J. Gomes,  A. Gunina,  
 M. W. D. Hanson-Heine,  P. H. P. Harbach,  A. W. Hauser,  E. G. Hohenstein,  
 Z. C. Holden,  K. Hui,  T.-C. Jagau,  H. Ji,  B. Kaduk,  K. Khistyaev,  
 Jaehoon Kim,  Jihan Kim,  R. A. King,  P. Klunzinger,  D. Kosenkov,  
 T. Kowalczyk,  C. M. Krauter,  A. Kunitsa,  K. U. Lao,  A. Laurent,  
 K. V. Lawler,  D. Lefrancois,  S. Lehtola,  S. V. Levchenko,  C. Y. Lin,  
 Y.-S. Lin,  F. Liu,  E. Livshits,  R. C. Lochan,  A. Luenser,  P. Manohar,  
 S. F. Manzer,  S.-P. Mao,  Y. Mao,  N. Mardirossian,  A. V. Marenich,  
 L. A. Martinez-Martinez,  S. A. Maurer,  N. J. Mayhall,  J.-M. Mewes,  
 A. F. Morrison,  K. Nanda,  C. M. Oana,  R. Olivares-Amaya,  D. P. O'Neill,  
 J. A. Parkhill,  T. M. Perrine,  R. Peverati,  P. A. Pieniazek,  F. Plasser,  
 A. Prociuk,  D. R. Rehn,  E. Rosta,  N. J. Russ,  N. Sergueev,  
 S. M. Sharada,  S. Sharma,  D. W. Small,  A. Sodt,  T. Stauch,  T. Stein,  
 D. Stuck,  Y.-C. Su,  A. J. W. Thom,  T. Tsuchimochi,  L. Vogt,  O. Vydrov,  
 T. Wang,  M. A. Watson,  J. Wenzel,  A. White,  C. F. Williams,  
 V. Vanovschi,  S. Yeganeh,  S. R. Yost,  Z.-Q. You,  I. Y. Zhang,  X. Zhang,  
 Y. Zhao,  B. R. Brooks,  G. K. L. Chan,  D. M. Chipman,  C. J. Cramer,  
 W. A. Goddard III,  M. S. Gordon,  W. J. Hehre,  A. Klamt,  
 H. F. Schaefer III,  M. W. Schmidt,  C. D. Sherrill,  D. G. Truhlar,  
 A. Warshel,  X. Xu,  A. Aspuru-Guzik,  R. Baer,  A. T. Bell,  N. A. Besley,  
 J.-D. Chai,  A. Dreuw,  B. D. Dunietz,  T. R. Furlani,  S. R. Gwaltney,  
 C.-P. Hsu,  Y. Jung,  J. Kong,  D. S. Lambrecht,  W. Liang,  C. Ochsenfeld,  
 V. A. Rassolov,  L. V. Slipchenko,  J. E. Subotnik,  T. Van Voorhis,  
 J. M. Herbert,  A. I. Krylov,  P. M. W. Gill,  M. Head-Gordon

 Contributors to earlier versions of Q-Chem not listed above: 
 R. D. Adamson,  J. Baker,  E. F. C. Byrd,  A. K. Chakraborty,  C.-L. Cheng,  
 H. Dachsel,  R. J. Doerksen,  G. Hawkins,  A. Heyden,  S. Hirata,  
 G. Kedziora,  F. J. Keil,  C. Kelley,  P. P. Korambath,  W. Kurlancheek,  
 A. M. Lee,  M. S. Lee,  D. Liotard,  I. Lotan,  P. E. Maslen,  N. Nair,  
 D. Neuhauser,  R. Olson,  B. Peters,  J. Ritchie,  N. E. Schultz,  
 N. Shenvi,  A. C. Simmonett,  K. S. Thanthiriwatte,  Q. Wu,  W. Zhang

 Please cite Q-Chem as follows:
 Y. Shao et al., Mol. Phys. 113, 184-215 (2015)
 DOI: 10.1080/00268976.2014.952696

 Q-Chem 4.4.1 for Intel X86 EM64T Linux

 Parts of Q-Chem use Armadillo 5.200.1 (Boston Tea Smuggler).
 http://arma.sourceforge.net/

 Q-Chem begins on Fri Sep  2 18:32:32 2016  

Host: nid01043
0

     Scratch files written to /dev/shm/eg_qchem/qchem55684.0//
 Parallel job on  16  processors

Checking the input file for inconsistencies... 	...done.

--------------------------------------------------------------
User input:
--------------------------------------------------------------
$comment
<SCF Fix Strategy>{
    "current_method_id": 0, 
    "methods": [
        "increase_iter", 
        "rca_diis", 
        "gwh", 
        "gdm", 
        "rca", 
        "core+rca", 
        "fon"
    ], 
    "version": 2.0
}</SCF Fix Strategy>
$end


$molecule
 0  1
 S           1.82267924       -1.19997629        0.28714109
 C           3.20006180       -0.17260711        0.06528466
 C           2.82980603        1.10216298       -0.25610036
 C           1.41909100        1.26345446       -0.34254814
 C           0.71738150        0.10901545       -0.08456145
 H           0.93627498        2.19419272       -0.61095402
 C          -0.71741859       -0.10899254       -0.08455524
 S          -1.75970034        0.78530831        1.00502257
 C          -1.46337876       -0.97222962       -0.85270096
 C          -3.17325963       -0.00399177        0.38797639
 C          -2.85871081       -0.91216947       -0.58243016
 H          -3.59745174       -1.51258643       -1.09670164
 H           4.19429620       -0.57452886        0.18632814
 H           3.53860725        1.89960515       -0.43610218
 H          -4.14534408        0.25216749        0.78056893
 H          -1.02465541       -1.61280579       -1.60676378
$end


$rem
         jobtype = opt
        exchange = b3lyp
           basis = 6-31++g**
  max_scf_cycles = 200
      mem_static = 100
       mem_total = 1500
   scf_algorithm = diis
       scf_guess = sad
$end


$opt
CONSTRAINT
tors 4 5 7 9 120.0
ENDCONSTRAINT
$end

--------------------------------------------------------------
 Atom   8: ( -1.7852597642,  1.0655445916,  0.5827330588)
         ->( -1.7852599194,  1.0655446619,  0.5827329478)
 Atom  10: ( -3.1884397342,  0.1476444924,  0.1463434958)
         ->( -3.1884397273,  0.1476442964,  0.1463434772)
 Atom  11: ( -2.8537818429, -0.9933488728, -0.5256347802)
         ->( -2.8537816850, -0.9933490841, -0.5256346095)
 Atom   9: ( -1.4505142990, -1.1348133977, -0.7111962131)
         ->( -1.4505141694, -1.1348132120, -0.7111965571)
 Atom   7: ( -0.7187388608, -0.0997957745, -0.1774117001)
         ->( -0.7187388032, -0.0997956770, -0.1774116772)
 Atom  16: ( -0.9951579187, -1.9601511108, -1.2430749306)
         ->( -0.9951577221, -1.9601507114, -1.2430755397)
 Atom  14: (  3.5832211991,  1.7062299972, -0.8867891999)
         ->(  3.5832214484,  1.7062296310, -0.8867894966)
 Atom  15: ( -4.1699263921,  0.5081840472,  0.4135322246)
         ->( -4.1699264669,  0.5081836337,  0.4135322226)
 ----------------------------------------------------------------
             Standard Nuclear Orientation (Angstroms)
    I     Atom           X                Y                Z
 ----------------------------------------------------------------
    1      S       1.7852599194    -1.0655446619     0.5827329478
    2      C       3.1884397273    -0.1476442964     0.1463434772
    3      C       2.8537816850     0.9933490841    -0.5256346095
    4      C       1.4505141694     1.1348132120    -0.7111965571
    5      C       0.7187388032     0.0997956770    -0.1774116772
    6      H       0.9951577221     1.9601507114    -1.2430755397
    7      C      -0.7187388032    -0.0997956770    -0.1774116772
    8      S      -1.7852599194     1.0655446619     0.5827329478
    9      C      -1.4505141694    -1.1348132120    -0.7111965571
   10      C      -3.1884397273     0.1476442964     0.1463434772
   11      C      -2.8537816850    -0.9933490841    -0.5256346095
   12      H      -3.5832214484    -1.7062296310    -0.8867894966
   13      H       4.1699264669    -0.5081836337     0.4135322226
   14      H       3.5832214484     1.7062296310    -0.8867894966
   15      H      -4.1699264669     0.5081836337     0.4135322226
   16      H      -0.9951577221    -1.9601507114    -1.2430755397
 ----------------------------------------------------------------
 Molecular Point Group                 C2    NOp =  2
 Largest Abelian Subgroup              C2    NOp =  2
 Nuclear Repulsion Energy =   629.4995974724 hartrees
 There are       43 alpha and       43 beta electrons
 Requested basis set is 6-31++G(d,p)
 There are 76 shells and 234 basis functions

 Total QAlloc Memory Limit   1500 MB
 Mega-Array Size        98 MB
 MEM_STATIC part       100 MB
 A cutoff of  1.0D-11 yielded   2490 shell pairs
 There are     24610 function pairs
 
 -------------------------------------------------------
 OpenMP Integral Computing Module                       
 Release: version 1.0, May 2013, Q-Chem Inc. Pittsburgh 
 -------------------------------------------------------
 Integral Job Info:
 Integral job number is                      11
 Integral operator is                         1
 short-range coefficients                     0
 long-range coefficients              100000000
 Omega coefficients                           0
 if combine SR and LR in K                    0
 Integral screening is                        0
 Integral computing path is                   2
 max size of driver memory is            800000
 size of driver memory is                593474
 size of scratch memory is             15166112
 max col of scratch BK array               1296
 max len of scratch array in speh3          155
 max len of scratch index in speh4           18
 max int batch size is                      520
 min int batch size is                       52
 fixed nKL is                                52
 max L of basis functions is                  2
 order of int derivative is                   0
 number of shells is                         76
 number of basis is                         234
 number of cartesian basis is               234
 number of contracted shell pairs          2490
 number of primitive shell pairs           8051
 maxK2 (contraction) of shell pair           36
 max number of K2 of shell pair               1
 max number of CS2 of shell pair            258
 max number of PS2 of shell pair           1524
 mem total for path MDJ                   51576
 -------------------------------------------------------
 Smallest overlap matrix eigenvalue = 1.07E-06

 Q-Chem warning in module /project/projectdirs/jcesr/qchem/qc44/cnl_qc441/compile/cori/qc_src/stvman/mkSTV.C, line 257:

 Overlap eigenvalue is smaller than square root of threshold


 Scale SEOQF with 1.000000e-01/1.000000e-01/1.000000e-01

 Standard Electronic Orientation quadrupole field applied
 Nucleus-field energy     =     0.0000000176 hartrees
 Guess from superposition of atomic densities
 Warning:  Energy on first SCF cycle will be non-variational
 A restricted hybrid HF-DFT SCF calculation will be
 performed using Pulay DIIS extrapolation
 Exchange:     0.2000 Hartree-Fock + 0.0800 Slater + 0.7200 B88
 Correlation:  0.1900 VWN1RPA + 0.8100 LYP
 Using SG-1 standard quadrature grid
 SCF converges when DIIS error is below 1.0E-08
 ---------------------------------------
  Cycle       Energy         DIIS Error
 ---------------------------------------
    1   -1107.2292768128      4.44E-02
    2   -1090.6779902509      1.96E-01
    3   -1084.0380636184      2.51E-01
    4   -1081.9747877072      2.55E-01
    5   -1085.1025525397      2.40E-01
    6   -1076.7141255800      1.40E-01
    7    -971.0530204782      2.44E+00
    8   -1014.3978001456      2.53E-01
    9    -970.4290441210      4.07E-01
   10    -880.2697677472      9.78E-01
   11    -786.3875294510      1.70E+00
   12   -1108.4737043396      2.03E-01
   13   -1040.6706235043      5.95E-01
   14   -1041.8586066995      5.85E-01
   15   -1056.2442203769      4.34E-01
   16   -1108.8520466200      3.40E-02
   17    -969.0835988255      8.48E-01
   18   -1027.9787390372      3.28E-01
   19    -975.9892293387      5.59E-01
   20   -1084.3554603397      4.93E-02
   21   -1103.5406598351      1.17E-02
   22   -1070.8207263511      1.23E-01
   23   -1066.5532478286      1.53E-01
   24   -1066.9320180688      1.71E-01
   25   -1104.7184543699      3.60E-03
   26   -1102.2148587302      1.42E-02
   27   -1102.4972896787      1.61E-02
   28   -1100.3509184899      3.56E-02
   29   -1102.6352239511      9.11E-03
   30   -1102.9653342530      7.14E-03
   31   -1110.9725484443      4.59E-02
   32   -1079.3255599524      1.76E-01
   33   -1080.8828166070      1.64E-01
   34   -1074.6462052717      2.08E-01
   35   -1071.0445409750      2.36E-01
   36   -1075.4351444393      2.06E-01
   37    -765.8274368867      1.94E+00
   38    -793.4148170768      1.79E+00
   39    -807.2642200859      1.70E+00
   40    -820.3220447492      1.62E+00
   41    -946.8614990745      8.75E-01
   42    -930.7007269953      9.48E-01
   43   -1104.0355969806      2.32E-02
   44   -1104.5640590514      5.72E-03
   45   -1104.7892534905      2.37E-03
   46   -1104.8214705815      1.39E-03
   47   -1104.8360242672      5.66E-04
   48   -1104.8384859116      1.72E-04
   49   -1104.8386423840      1.01E-04
   50   -1104.8387127615      1.60E-05
   51   -1104.8387095194      4.56E-06
   52   -1104.8387109212      2.34E-06
   53   -1104.8387107047      2.68E-07
   54   -1104.8387101912      8.39E-08
   55   -1104.8387100747      5.45E-08
   56   -1104.8387088950      1.26E-07
   57   -1104.8387086933      1.73E-07
   58   -1104.8387109702      1.01E-07
   59   -1104.8387101870      3.69E-08
   60   -1104.8387089857      6.89E-08
   61   -1104.8387091197      5.12E-08
   62   -1104.8387077882      1.28E-07
   63   -1104.8387078540      1.08E-07
   64   -1104.8387087237      2.78E-08
   65   -1104.8387087328      4.09E-08
   66   -1104.8387087298      4.46E-08
   67   -1104.8387087424      4.38E-08
   68   -1104.8387088780      3.87E-08
   69   -1104.8387088800      3.92E-08
   70   -1104.8387090067      3.07E-08
   71   -1104.8387087262      4.78E-08
   72   -1104.8387086997      4.45E-08
   73   -1104.8387087194      3.89E-08
   74   -1104.8387087385      3.24E-08
   75   -1104.8387087730      2.00E-08
   76   -1104.8387091525      8.87E-09 Convergence criterion met
 ---------------------------------------
 SCF time:  CPU 32.42 s  wall 27.35 s
 SCF   energy in the final basis set = -1104.8387091525
 Total energy in the final basis set = -1104.8387091525
 
 --------------------------------------------------------------
             Orbital Energies (a.u.) and Symmetries
 --------------------------------------------------------------
 
 Alpha MOs, Restricted
 -- Occupied --                  
-88.919 -88.919 -10.235 -10.235 -10.223 -10.223 -10.203 -10.203
  1 B     1 A     2 A     2 B     3 B     3 A     4 A     4 B                  
-10.202 -10.202  -7.978  -7.978  -5.942  -5.942  -5.939  -5.939
  5 B     5 A     6 B     6 A     7 B     7 A     8 B     8 A                  
 -5.936  -5.936  -0.900  -0.879  -0.771  -0.745  -0.739  -0.706
  9 B     9 A    10 A    10 B    11 A    11 B    12 A    12 B                  
 -0.603  -0.574  -0.558  -0.535  -0.524  -0.478  -0.418  -0.418
 13 A    13 B    14 A    14 B    15 A    15 B    16 A    16 B                  
 -0.411  -0.406  -0.396  -0.376  -0.375  -0.353  -0.348  -0.264
 17 A    17 B    18 A    19 A    18 B    19 B    20 A    21 A                  
 -0.261  -0.259  -0.226
 22 A    20 B    21 B                                                          
 -- Virtual --                   
 -0.045  -0.019  -0.006  -0.003   0.007   0.011   0.018   0.022
 23 A    22 B    24 A    23 B    25 A    24 B    25 B    26 A                  
  0.028   0.037   0.038   0.040   0.044   0.055   0.062   0.064
 27 A    28 A    26 B    27 B    29 A    28 B    30 A    29 B                  
  0.070   0.076   0.088   0.097   0.104   0.104   0.108   0.109
 30 B    31 A    32 A    31 B    33 A    34 A    32 B    35 A                  
  0.119   0.122   0.127   0.131   0.132   0.134   0.136   0.144
 33 B    34 B    35 B    36 A    36 B    37 A    38 A    37 B                  
  0.146   0.152   0.153   0.164   0.166   0.173   0.178   0.181
 38 B    39 A    40 A    39 B    41 A    40 B    41 B    42 A                  
  0.186   0.189   0.198   0.208   0.212   0.225   0.225   0.232
 43 A    42 B    43 B    44 A    44 B    45 B    45 A    46 A                  
  0.236   0.241   0.261   0.265   0.276   0.283   0.288   0.290
 47 A    46 B    47 B    48 A    49 A    48 B    50 A    49 B                  
  0.312   0.320   0.323   0.338   0.357   0.360   0.377   0.391
 50 B    51 B    51 A    52 A    52 B    53 A    53 B    54 A                  
  0.436   0.464   0.467   0.512   0.520   0.529   0.533   0.575
 54 B    55 B    55 A    56 A    57 A    56 B    57 B    58 B                  
  0.582   0.596   0.618   0.629   0.650   0.660   0.675   0.684
 58 A    59 A    59 B    60 A    60 B    61 B    61 A    62 A                  
  0.697   0.716   0.722   0.726   0.739   0.757   0.765   0.779
 63 A    62 B    63 B    64 A    64 B    65 B    65 A    66 B                  
  0.780   0.806   0.807   0.828   0.836   0.879   0.916   0.942
 66 A    67 B    67 A    68 A    68 B    69 A    69 B    70 B                  
  0.943   0.949   0.960   0.968   0.972   0.987   0.996   1.014
 70 A    71 B    71 A    72 B    72 A    73 A    73 B    74 B                  
  1.017   1.031   1.034   1.072   1.092   1.094   1.103   1.116
 75 B    74 A    75 A    76 A    76 B    77 A    78 A    77 B                  
  1.145   1.181   1.202   1.217   1.259   1.275   1.319   1.348
 78 B    79 A    80 A    79 B    81 A    80 B    81 B    82 A                  
  1.351   1.352   1.367   1.386   1.466   1.467   1.489   1.535
 83 A    82 B    83 B    84 A    84 B    85 A    85 B    86 A                  
  1.555   1.691   1.695   1.764   1.805   1.865   1.877   1.889
 86 B    87 A    87 B    88 A    89 A    88 B    90 A    89 B                  
  1.920   1.928   1.972   1.997   2.005   2.035   2.075   2.101
 90 B    91 A    92 A    91 B    93 A    92 B    93 B    94 A                  
  2.133   2.136   2.183   2.188   2.223   2.264   2.272   2.343
 94 B    95 A    95 B    96 A    96 B    97 A    97 B    98 A                  
  2.368   2.369   2.425   2.442   2.470   2.473   2.499   2.508
 99 A    98 B    99 B   100 A   101 A   100 B   101 B   102 A                  
  2.525   2.529   2.588   2.593   2.603   2.657   2.702   2.713
102 B   103 A   103 B   104 A   104 B   105 A   106 A   105 B                  
  2.752   2.855   2.862   2.902   2.939   3.162   3.194   3.275
106 B   107 A   107 B   108 A   108 B   109 B   109 A   110 B                  
  3.278   3.410   3.432   3.730   3.750   3.973   3.976   4.272
110 A   111 A   111 B   112 A   112 B   113 A   113 B   114 A                  
  4.305   4.320   4.334   4.430   4.538   4.661   4.717
115 A   114 B   115 B   116 A   116 B   117 A   117 B                          
 
 Beta MOs, Restricted
 -- Occupied --                  
-88.919 -88.919 -10.235 -10.235 -10.223 -10.223 -10.203 -10.203
  1 B     1 A     2 A     2 B     3 B     3 A     4 A     4 B                  
-10.202 -10.202  -7.978  -7.978  -5.942  -5.942  -5.939  -5.939
  5 B     5 A     6 B     6 A     7 B     7 A     8 B     8 A                  
 -5.936  -5.936  -0.900  -0.879  -0.771  -0.745  -0.739  -0.706
  9 B     9 A    10 A    10 B    11 A    11 B    12 A    12 B                  
 -0.603  -0.574  -0.558  -0.535  -0.524  -0.478  -0.418  -0.418
 13 A    13 B    14 A    14 B    15 A    15 B    16 A    16 B                  
 -0.411  -0.406  -0.396  -0.376  -0.375  -0.353  -0.348  -0.264
 17 A    17 B    18 A    19 A    18 B    19 B    20 A    21 A                  
 -0.261  -0.259  -0.226
 22 A    20 B    21 B                                                          
 -- Virtual --                   
 -0.045  -0.019  -0.006  -0.003   0.007   0.011   0.018   0.022
 23 A    22 B    24 A    23 B    25 A    24 B    25 B    26 A                  
  0.028   0.037   0.038   0.040   0.044   0.055   0.062   0.064
 27 A    28 A    26 B    27 B    29 A    28 B    30 A    29 B                  
  0.070   0.076   0.088   0.097   0.104   0.104   0.108   0.109
 30 B    31 A    32 A    31 B    33 A    34 A    32 B    35 A                  
  0.119   0.122   0.127   0.131   0.132   0.134   0.136   0.144
 33 B    34 B    35 B    36 A    36 B    37 A    38 A    37 B                  
  0.146   0.152   0.153   0.164   0.166   0.173   0.178   0.181
 38 B    39 A    40 A    39 B    41 A    40 B    41 B    42 A                  
  0.186   0.189   0.198   0.208   0.212   0.225   0.225   0.232
 43 A    42 B    43 B    44 A    44 B    45 B    45 A    46 A                  
  0.236   0.241   0.261   0.265   0.276   0.283   0.288   0.290
 47 A    46 B    47 B    48 A    49 A    48 B    50 A    49 B                  
  0.312   0.320   0.323   0.338   0.357   0.360   0.377   0.391
 50 B    51 B    51 A    52 A    52 B    53 A    53 B    54 A                  
  0.436   0.464   0.467   0.512   0.520   0.529   0.533   0.575
 54 B    55 B    55 A    56 A    57 A    56 B    57 B    58 B                  
  0.582   0.596   0.618   0.629   0.650   0.660   0.675   0.684
 58 A    59 A    59 B    60 A    60 B    61 B    61 A    62 A                  
  0.697   0.716   0.722   0.726   0.739   0.757   0.765   0.779
 63 A    62 B    63 B    64 A    64 B    65 B    65 A    66 B                  
  0.780   0.806   0.807   0.828   0.836   0.879   0.916   0.942
 66 A    67 B    67 A    68 A    68 B    69 A    69 B    70 B                  
  0.943   0.949   0.960   0.968   0.972   0.987   0.996   1.014
 70 A    71 B    71 A    72 B    72 A    73 A    73 B    74 B                  
  1.017   1.031   1.034   1.072   1.092   1.094   1.103   1.116
 75 B    74 A    75 A    76 A    76 B    77 A    78 A    77 B                  
  1.145   1.181   1.202   1.217   1.259   1.275   1.319   1.348
 78 B    79 A    80 A    79 B    81 A    80 B    81 B    82 A                  
  1.351   1.352   1.367   1.386   1.466   1.467   1.489   1.535
 83 A    82 B    83 B    84 A    84 B    85 A    85 B    86 A                  
  1.555   1.691   1.695   1.764   1.805   1.865   1.877   1.889
 86 B    87 A    87 B    88 A    89 A    88 B    90 A    89 B                  
  1.920   1.928   1.972   1.997   2.005   2.035   2.075   2.101
 90 B    91 A    92 A    91 B    93 A    92 B    93 B    94 A                  
  2.133   2.136   2.183   2.188   2.223   2.264   2.272   2.343
 94 B    95 A    95 B    96 A    96 B    97 A    97 B    98 A                  
  2.368   2.369   2.425   2.442   2.470   2.473   2.499   2.508
 99 A    98 B    99 B   100 A   101 A   100 B   101 B   102 A                  
  2.525   2.529   2.588   2.593   2.603   2.657   2.702   2.713
102 B   103 A   103 B   104 A   104 B   105 A   106 A   105 B                  
  2.752   2.855   2.862   2.902   2.939   3.162   3.194   3.275
106 B   107 A   107 B   108 A   108 B   109 B   109 A   110 B                  
  3.278   3.410   3.432   3.730   3.750   3.973   3.976   4.272
110 A   111 A   111 B   112 A   112 B   113 A   113 B   114 A                  
  4.305   4.320   4.334   4.430   4.538   4.661   4.717
115 A   114 B   115 B   116 A   116 B   117 A   117 B                          
 --------------------------------------------------------------
 
          Ground-State Mulliken Net Atomic Charges

     Atom                 Charge (a.u.)
  ----------------------------------------
      1 S                     0.050486
      2 C                    -0.049244
      3 C                    -0.385623
      4 C                     0.251535
      5 C                    -0.306813
      6 H                     0.135680
      7 C                    -0.306813
      8 S                     0.050486
      9 C                     0.251535
     10 C                    -0.049244
     11 C                    -0.385623
     12 H                     0.117048
     13 H                     0.186931
     14 H                     0.117048
     15 H                     0.186931
     16 H                     0.135680
  ----------------------------------------
  Sum of atomic charges =     0.000000

 -----------------------------------------------------------------
                    Cartesian Multipole Moments
 -----------------------------------------------------------------
    Charge (ESU x 10^10)
                 0.0000
    Dipole Moment (Debye)
         X      -0.0000      Y      -0.0000      Z      -0.5572
       Tot       0.5572
    Quadrupole Moments (Debye-Ang)
        XX     -61.2067     XY       1.4795     YY     -70.7215
        XZ      -0.0000     YZ       0.0000     ZZ     -75.7850
    Octopole Moments (Debye-Ang^2)
       XXX      -0.0000    XXY      -0.0000    XYY      -0.0000
       YYY      -0.0000    XXZ       5.3283    XYZ     -11.7916
       YYZ      -6.2104    XZZ      -0.0000    YZZ      -0.0000
       ZZZ       3.0575
    Hexadecapole Moments (Debye-Ang^3)
      XXXX   -1881.0592   XXXY     -15.2957   XXYY    -417.1110
      XYYY       7.6581   YYYY    -468.1110   XXXZ      -0.0000
      XXYZ       0.0000   XYYZ      -0.0000   YYYZ      -0.0000
      XXZZ    -420.1098   XYZZ       0.0688   YYZZ    -108.5360
      XZZZ      -0.0000   YZZZ      -0.0000   ZZZZ    -233.6265
 -----------------------------------------------------------------
 Calculating analytic gradient of the SCF energy
 Gradient of SCF Energy
            1           2           3           4           5           6
    1  -0.0003758   0.0003419  -0.0013655   0.0010334  -0.0054575   0.0012530
    2   0.0011916   0.0037908  -0.0024957  -0.0016244   0.0008028  -0.0010101
    3   0.0004144  -0.0024916   0.0014468   0.0000108   0.0000176   0.0002198
            7           8           9          10          11          12
    1   0.0054575   0.0003758  -0.0010334  -0.0003419   0.0013655   0.0010674
    2  -0.0008028  -0.0011916   0.0016244  -0.0037908   0.0024957   0.0010392
    3   0.0000176   0.0004144   0.0000108  -0.0024916   0.0014468   0.0006012
           13          14          15          16
    1  -0.0018163  -0.0010675   0.0018163  -0.0012530
    2   0.0001718  -0.0010392  -0.0001718   0.0010101
    3  -0.0002190   0.0006012  -0.0002190   0.0002198
 Max gradient component =       5.457E-03
 RMS gradient           =       1.772E-03
 Gradient time:  CPU 1.90 s  wall 1.90 s
 Geometry Optimization Parameters
   NAtoms,    NIC,     NZ,  NCons,   NDum,   NFix, NCnnct, MaxDiis
       16     111       0       1       0       0       0       0


** CONSTRAINED OPTIMIZATION IN DELOCALIZED INTERNAL COORDINATES **
   Searching for a Minimum

   Optimization Cycle:   1

                       Coordinates (Angstroms)
     ATOM                X               Y               Z
      1  S         1.7852599194   -1.0655446619    0.5827329478
      2  C         3.1884397273   -0.1476442964    0.1463434772
      3  C         2.8537816850    0.9933490841   -0.5256346095
      4  C         1.4505141694    1.1348132120   -0.7111965571
      5  C         0.7187388032    0.0997956770   -0.1774116772
      6  H         0.9951577221    1.9601507114   -1.2430755397
      7  C        -0.7187388032   -0.0997956770   -0.1774116772
      8  S        -1.7852599194    1.0655446619    0.5827329478
      9  C        -1.4505141694   -1.1348132120   -0.7111965571
     10  C        -3.1884397273    0.1476442964    0.1463434772
     11  C        -2.8537816850   -0.9933490841   -0.5256346095
     12  H        -3.5832214484   -1.7062296310   -0.8867894966
     13  H         4.1699264669   -0.5081836337    0.4135322226
     14  H         3.5832214484    1.7062296310   -0.8867894966
     15  H        -4.1699264669    0.5081836337    0.4135322226
     16  H        -0.9951577221   -1.9601507114   -1.2430755397
   Point Group: c2    Number of degrees of freedom:    22


   Energy is  -1104.838709153

              Constraints and their Current Values
                                        Value     Constraint
   Dihedral:        4   5   7   9      120.000      120.000

 Attempting to Generate Delocalized Internal Coordinates

 21 Hessian modes will be used to form the next step
  Hessian Eigenvalues:
     0.045000    0.045000    0.045000    0.045002    0.045004    0.045013
     0.159937    0.159990    0.160000    0.221280    0.237833    0.249997
     0.296078    0.314672    0.357149    0.357543    0.360899    0.380793
     0.408411    0.470750    0.505998

 Minimum Search - Taking Simple RFO Step
 Searching for Lamda that Minimizes Along All modes
 Value Taken    Lamda =  -0.00045876
 Step Taken.  Stepsize is  0.051364

                             Maximum     Tolerance    Cnvgd?
         Gradient           0.006563      0.000300      NO
         Displacement       0.024026      0.001200      NO
         Energy change     *********      0.000001      NO


 New Cartesian Coordinates Obtained by Inverse Iteration

 Displacement from previous Coordinates is:  0.105418
 ----------------------------------------------------------------
             Standard Nuclear Orientation (Angstroms)
    I     Atom           X                Y                Z
 ----------------------------------------------------------------
    1      S       1.7960590330    -1.0727162783     0.5746767633
    2      C       3.1993623202    -0.1523744263     0.1405175813
    3      C       2.8619149391     0.9964178383    -0.5268177863
    4      C       1.4535243243     1.1395618790    -0.7044540332
    5      C       0.7237441520     0.1011352504    -0.1689980507
    6      H       0.9897896198     1.9684836195    -1.2276950545
    7      C      -0.7237441520    -0.1011352504    -0.1689980507
    8      S      -1.7960590330     1.0727162783     0.5746767633
    9      C      -1.4535243243    -1.1395618790    -0.7044540332
   10      C      -3.1993623202     0.1523744263     0.1405175813
   11      C      -2.8619149391    -0.9964178383    -0.5268177863
   12      H      -3.5915151345    -1.7123015709    -0.8888324889
   13      H       4.1853331665    -0.5139628658     0.4001038365
   14      H       3.5915151345     1.7123015709    -0.8888324889
   15      H      -4.1853331665     0.5139628658     0.4001038365
   16      H      -0.9897896198    -1.9684836195    -1.2276950545
 ----------------------------------------------------------------
 Molecular Point Group                 C2    NOp =  2
 Largest Abelian Subgroup              C2    NOp =  2
 Nuclear Repulsion Energy =   627.8728658416 hartrees
 There are       43 alpha and       43 beta electrons
 Applying Cartesian multipole field
    Component          Value
    ---------          -----
     (2,0,0)        1.00000E-11
     (0,2,0)        2.00000E-11
     (0,0,2)       -3.00000E-11
 Nucleus-field energy     =     0.0000000179 hartrees
 Requested basis set is 6-31++G(d,p)
 There are 76 shells and 234 basis functions
 A cutoff of  1.0D-11 yielded   2488 shell pairs
 There are     24598 function pairs
 Smallest overlap matrix eigenvalue = 1.13E-06

 Q-Chem warning in module /project/projectdirs/jcesr/qchem/qc44/cnl_qc441/compile/cori/qc_src/stvman/mkSTV.C, line 257:

 Overlap eigenvalue is smaller than square root of threshold

 Guess MOs from SCF MO coefficient file
 Reading MOs from coefficient file
 Reading MOs from coefficient file
 A restricted hybrid HF-DFT SCF calculation will be
 performed using Pulay DIIS extrapolation
 Exchange:     0.2000 Hartree-Fock + 0.0800 Slater + 0.7200 B88
 Correlation:  0.1900 VWN1RPA + 0.8100 LYP
 Using SG-1 standard quadrature grid
 SCF converges when DIIS error is below 1.0E-08
 Geometry optimization detected.  Setting ReadMinima to 0
 Setting SaveMinima to 0
 ---------------------------------------
  Cycle       Energy         DIIS Error
 ---------------------------------------
    1   -1104.8189005625      5.17E-04
    2   -1104.8388594290      1.04E-04
    3   -1104.8386136292      2.07E-04
    4   -1104.8389521452      2.80E-05
    5   -1104.8389569415      1.06E-05
    6   -1104.8389577449      2.94E-06
    7   -1104.8389578059      1.14E-06
    8   -1104.8389578129      2.67E-07
    9   -1104.8389578111      6.21E-08
   10   -1104.8389578128      2.54E-08
   11   -1104.8389578135      4.11E-09 Convergence criterion met
 ---------------------------------------
 SCF time:  CPU 5.75 s  wall 5.14 s
 SCF   energy in the final basis set = -1104.8389578135
 Total energy in the final basis set = -1104.8389578135
 
 --------------------------------------------------------------
             Orbital Energies (a.u.) and Symmetries
 --------------------------------------------------------------
 
 Alpha MOs, Restricted
 -- Occupied --                  
-88.920 -88.920 -10.237 -10.237 -10.225 -10.225 -10.204 -10.204
  1 B     1 A     2 A     2 B     3 B     3 A     4 A     4 B                  
-10.203 -10.203  -7.979  -7.979  -5.943  -5.943  -5.939  -5.939
  5 B     5 A     6 B     6 A     7 B     7 A     8 B     8 A                  
 -5.936  -5.936  -0.898  -0.877  -0.769  -0.745  -0.739  -0.705
  9 B     9 A    10 A    10 B    11 A    11 B    12 A    12 B                  
 -0.602  -0.574  -0.558  -0.534  -0.523  -0.478  -0.417  -0.417
 13 A    13 B    14 A    14 B    15 A    15 B    16 A    16 B                  
 -0.410  -0.406  -0.395  -0.376  -0.374  -0.353  -0.348  -0.264
 17 A    17 B    18 A    19 A    18 B    19 B    20 A    21 A                  
 -0.261  -0.259  -0.226
 22 A    20 B    21 B                                                          
 -- Virtual --                   
 -0.045  -0.019  -0.006  -0.003   0.007   0.011   0.018   0.022
 23 A    22 B    24 A    23 B    25 A    24 B    25 B    26 A                  
  0.028   0.036   0.038   0.039   0.044   0.055   0.061   0.063
 27 A    28 A    26 B    27 B    29 A    28 B    30 A    29 B                  
  0.070   0.076   0.088   0.096   0.103   0.104   0.107   0.108
 30 B    31 A    32 A    31 B    33 A    34 A    32 B    35 A                  
  0.118   0.122   0.127   0.131   0.132   0.133   0.135   0.144
 33 B    34 B    35 B    36 A    36 B    37 A    38 A    37 B                  
  0.144   0.152   0.153   0.164   0.165   0.173   0.177   0.180
 38 B    39 A    40 A    39 B    41 A    40 B    41 B    42 A                  
  0.186   0.189   0.197   0.207   0.211   0.224   0.225   0.232
 43 A    42 B    43 B    44 A    44 B    45 B    45 A    46 A                  
  0.235   0.240   0.261   0.266   0.275   0.281   0.287   0.289
 47 A    46 B    47 B    48 A    49 A    48 B    50 A    49 B                  
  0.311   0.318   0.322   0.337   0.356   0.360   0.376   0.389
 50 B    51 B    51 A    52 A    52 B    53 A    53 B    54 A                  
  0.435   0.461   0.467   0.511   0.521   0.528   0.531   0.573
 54 B    55 B    55 A    56 A    57 A    56 B    57 B    58 B                  
  0.581   0.596   0.617   0.628   0.650   0.659   0.674   0.682
 58 A    59 A    59 B    60 A    60 B    61 B    61 A    62 A                  
  0.697   0.714   0.722   0.725   0.737   0.757   0.764   0.778
 63 A    62 B    63 B    64 A    64 B    65 B    65 A    66 B                  
  0.779   0.804   0.806   0.827   0.835   0.877   0.914   0.942
 66 A    67 B    67 A    68 A    68 B    69 A    69 B    70 A                  
  0.944   0.949   0.961   0.966   0.969   0.986   0.997   1.014
 70 B    71 B    71 A    72 B    72 A    73 A    73 B    74 B                  
  1.017   1.029   1.034   1.072   1.091   1.093   1.101   1.114
 75 B    74 A    75 A    76 A    76 B    77 A    78 A    77 B                  
  1.144   1.180   1.199   1.216   1.258   1.272   1.318   1.349
 78 B    79 A    80 A    79 B    81 A    80 B    81 B    82 A                  
  1.351   1.351   1.366   1.385   1.463   1.465   1.485   1.535
 83 A    82 B    83 B    84 A    84 B    85 A    85 B    86 A                  
  1.551   1.690   1.694   1.760   1.799   1.865   1.873   1.885
 86 B    87 A    87 B    88 A    89 A    88 B    90 A    89 B                  
  1.917   1.922   1.965   1.993   2.002   2.031   2.072   2.098
 90 B    91 A    92 A    91 B    93 A    92 B    93 B    94 A                  
  2.130   2.134   2.181   2.183   2.218   2.259   2.264   2.335
 94 B    95 A    95 B    96 A    96 B    97 A    97 B    98 A                  
  2.367   2.368   2.423   2.436   2.467   2.467   2.494   2.505
 99 A    98 B    99 B   100 A   101 A   100 B   101 B   102 A                  
  2.523   2.524   2.582   2.587   2.599   2.652   2.696   2.707
102 B   103 A   103 B   104 A   104 B   105 A   106 A   105 B                  
  2.746   2.847   2.854   2.893   2.931   3.154   3.185   3.268
106 B   107 A   107 B   108 A   108 B   109 B   109 A   110 B                  
  3.271   3.403   3.424   3.720   3.740   3.971   3.975   4.268
110 A   111 A   111 B   112 A   112 B   113 A   113 B   114 A                  
  4.302   4.320   4.330   4.427   4.535   4.657   4.710
115 A   114 B   115 B   116 A   116 B   117 A   117 B                          
 
 Beta MOs, Restricted
 -- Occupied --                  
-88.920 -88.920 -10.237 -10.237 -10.225 -10.225 -10.204 -10.204
  1 B     1 A     2 A     2 B     3 B     3 A     4 A     4 B                  
-10.203 -10.203  -7.979  -7.979  -5.943  -5.943  -5.939  -5.939
  5 B     5 A     6 B     6 A     7 B     7 A     8 B     8 A                  
 -5.936  -5.936  -0.898  -0.877  -0.769  -0.745  -0.739  -0.705
  9 B     9 A    10 A    10 B    11 A    11 B    12 A    12 B                  
 -0.602  -0.574  -0.558  -0.534  -0.523  -0.478  -0.417  -0.417
 13 A    13 B    14 A    14 B    15 A    15 B    16 A    16 B                  
 -0.410  -0.406  -0.395  -0.376  -0.374  -0.353  -0.348  -0.264
 17 A    17 B    18 A    19 A    18 B    19 B    20 A    21 A                  
 -0.261  -0.259  -0.226
 22 A    20 B    21 B                                                          
 -- Virtual --                   
 -0.045  -0.019  -0.006  -0.003   0.007   0.011   0.018   0.022
 23 A    22 B    24 A    23 B    25 A    24 B    25 B    26 A                  
  0.028   0.036   0.038   0.039   0.044   0.055   0.061   0.063
 27 A    28 A    26 B    27 B    29 A    28 B    30 A    29 B                  
  0.070   0.076   0.088   0.096   0.103   0.104   0.107   0.108
 30 B    31 A    32 A    31 B    33 A    34 A    32 B    35 A                  
  0.118   0.122   0.127   0.131   0.132   0.133   0.135   0.144
 33 B    34 B    35 B    36 A    36 B    37 A    38 A    37 B                  
  0.144   0.152   0.153   0.164   0.165   0.173   0.177   0.180
 38 B    39 A    40 A    39 B    41 A    40 B    41 B    42 A                  
  0.186   0.189   0.197   0.207   0.211   0.224   0.225   0.232
 43 A    42 B    43 B    44 A    44 B    45 B    45 A    46 A                  
  0.235   0.240   0.261   0.266   0.275   0.281   0.287   0.289
 47 A    46 B    47 B    48 A    49 A    48 B    50 A    49 B                  
  0.311   0.318   0.322   0.337   0.356   0.360   0.376   0.389
 50 B    51 B    51 A    52 A    52 B    53 A    53 B    54 A                  
  0.435   0.461   0.467   0.511   0.521   0.528   0.531   0.573
 54 B    55 B    55 A    56 A    57 A    56 B    57 B    58 B                  
  0.581   0.596   0.617   0.628   0.650   0.659   0.674   0.682
 58 A    59 A    59 B    60 A    60 B    61 B    61 A    62 A                  
  0.697   0.714   0.722   0.725   0.737   0.757   0.764   0.778
 63 A    62 B    63 B    64 A    64 B    65 B    65 A    66 B                  
  0.779   0.804   0.806   0.827   0.835   0.877   0.914   0.942
 66 A    67 B    67 A    68 A    68 B    69 A    69 B    70 A                  
  0.944   0.949   0.961   0.966   0.969   0.986   0.997   1.014
 70 B    71 B    71 A    72 B    72 A    73 A    73 B    74 B                  
  1.017   1.029   1.034   1.072   1.091   1.093   1.101   1.114
 75 B    74 A    75 A    76 A    76 B    77 A    78 A    77 B                  
  1.144   1.180   1.199   1.216   1.258   1.272   1.318   1.349
 78 B    79 A    80 A    79 B    81 A    80 B    81 B    82 A                  
  1.351   1.351   1.366   1.385   1.463   1.465   1.485   1.535
 83 A    82 B    83 B    84 A    84 B    85 A    85 B    86 A                  
  1.551   1.690   1.694   1.760   1.799   1.865   1.873   1.885
 86 B    87 A    87 B    88 A    89 A    88 B    90 A    89 B                  
  1.917   1.922   1.965   1.993   2.002   2.031   2.072   2.098
 90 B    91 A    92 A    91 B    93 A    92 B    93 B    94 A                  
  2.130   2.134   2.181   2.183   2.218   2.259   2.264   2.335
 94 B    95 A    95 B    96 A    96 B    97 A    97 B    98 A                  
  2.367   2.368   2.423   2.436   2.467   2.467   2.494   2.505
 99 A    98 B    99 B   100 A   101 A   100 B   101 B   102 A                  
  2.523   2.524   2.582   2.587   2.599   2.652   2.696   2.707
102 B   103 A   103 B   104 A   104 B   105 A   106 A   105 B                  
  2.746   2.847   2.854   2.893   2.931   3.154   3.185   3.268
106 B   107 A   107 B   108 A   108 B   109 B   109 A   110 B                  
  3.271   3.403   3.424   3.720   3.740   3.971   3.975   4.268
110 A   111 A   111 B   112 A   112 B   113 A   113 B   114 A                  
  4.302   4.320   4.330   4.427   4.535   4.657   4.710
115 A   114 B   115 B   116 A   116 B   117 A   117 B                          
 --------------------------------------------------------------
 
          Ground-State Mulliken Net Atomic Charges

     Atom                 Charge (a.u.)
  ----------------------------------------
      1 S                     0.048272
      2 C                    -0.048608
      3 C                    -0.384678
      4 C                     0.242597
      5 C                    -0.299307
      6 H                     0.136500
      7 C                    -0.299307
      8 S                     0.048272
      9 C                     0.242597
     10 C                    -0.048608
     11 C                    -0.384678
     12 H                     0.117438
     13 H                     0.187786
     14 H                     0.117438
     15 H                     0.187786
     16 H                     0.136500
  ----------------------------------------
  Sum of atomic charges =     0.000000

 -----------------------------------------------------------------
                    Cartesian Multipole Moments
 -----------------------------------------------------------------
    Charge (ESU x 10^10)
                 0.0000
    Dipole Moment (Debye)
         X       0.0000      Y      -0.0000      Z      -0.5630
       Tot       0.5630
    Quadrupole Moments (Debye-Ang)
        XX     -61.1410     XY       1.4246     YY     -70.6926
        XZ       0.0000     YZ       0.0000     ZZ     -75.9474
    Octopole Moments (Debye-Ang^2)
       XXX       0.0000    XXY      -0.0000    XYY      -0.0000
       YYY       0.0000    XXZ       5.1952    XYZ     -11.8064
       YYZ      -6.1175    XZZ       0.0000    YZZ       0.0000
       ZZZ       3.5575
    Hexadecapole Moments (Debye-Ang^3)
      XXXX   -1892.8193   XXXY     -14.8680   XXYY    -420.1150
      XYYY       8.9961   YYYY    -471.8746   XXXZ       0.0000
      XXYZ       0.0000   XYYZ       0.0000   YYYZ       0.0000
      XXZZ    -423.5946   XYZZ       0.6091   YYZZ    -109.0904
      XZZZ      -0.0000   YZZZ       0.0000   ZZZZ    -231.4398
 -----------------------------------------------------------------
 Calculating analytic gradient of the SCF energy
 Gradient of SCF Energy
            1           2           3           4           5           6
    1   0.0001603   0.0006896  -0.0000883   0.0001385  -0.0012082   0.0001228
    2   0.0000962   0.0002875  -0.0001023  -0.0005931   0.0009962  -0.0000204
    3   0.0004444  -0.0000018   0.0000457  -0.0010946   0.0008647  -0.0003408
            7           8           9          10          11          12
    1   0.0012082  -0.0001603  -0.0001385  -0.0006896   0.0000883  -0.0000843
    2  -0.0009962  -0.0000962   0.0005931  -0.0002875   0.0001023  -0.0001142
    3   0.0008647   0.0004444  -0.0010946  -0.0000018   0.0000457  -0.0000438
           13          14          15          16
    1   0.0000176   0.0000843  -0.0000176  -0.0001228
    2  -0.0002135   0.0001142   0.0002135   0.0000204
    3   0.0001262  -0.0000438   0.0001262  -0.0003408
 Max gradient component =       1.208E-03
 RMS gradient           =       4.914E-04
 Gradient time:  CPU 1.94 s  wall 1.89 s
 Geometry Optimization Parameters
   NAtoms,    NIC,     NZ,  NCons,   NDum,   NFix, NCnnct, MaxDiis
       16     111       0       1       0       0       0       0

 Cartesian Hessian Update
 Hessian Updated using BFGS Update


** CONSTRAINED OPTIMIZATION IN DELOCALIZED INTERNAL COORDINATES **
   Searching for a Minimum

   Optimization Cycle:   2

                       Coordinates (Angstroms)
     ATOM                X               Y               Z
      1  S         1.7960590330   -1.0727162783    0.5746767633
      2  C         3.1993623202   -0.1523744263    0.1405175813
      3  C         2.8619149391    0.9964178383   -0.5268177863
      4  C         1.4535243243    1.1395618790   -0.7044540332
      5  C         0.7237441520    0.1011352504   -0.1689980507
      6  H         0.9897896198    1.9684836195   -1.2276950545
      7  C        -0.7237441520   -0.1011352504   -0.1689980507
      8  S        -1.7960590330    1.0727162783    0.5746767633
      9  C        -1.4535243243   -1.1395618790   -0.7044540332
     10  C        -3.1993623202    0.1523744263    0.1405175813
     11  C        -2.8619149391   -0.9964178383   -0.5268177863
     12  H        -3.5915151345   -1.7123015709   -0.8888324889
     13  H         4.1853331665   -0.5139628658    0.4001038365
     14  H         3.5915151345    1.7123015709   -0.8888324889
     15  H        -4.1853331665    0.5139628658    0.4001038365
     16  H        -0.9897896198   -1.9684836195   -1.2276950545
   Point Group: c2    Number of degrees of freedom:    22


   Energy is  -1104.838957814

              Constraints and their Current Values
                                        Value     Constraint
   Dihedral:        4   5   7   9      120.000      120.000
 Hessian Updated using BFGS Update

 21 Hessian modes will be used to form the next step
  Hessian Eigenvalues:
     0.035950    0.045000    0.045000    0.045002    0.045013    0.045371
     0.156365    0.159991    0.160073    0.221081    0.236409    0.249823
     0.297472    0.314817    0.357278    0.358810    0.363135    0.386123
     0.436440    0.468871    0.545723

 Minimum Search - Taking Simple RFO Step
 Searching for Lamda that Minimizes Along All modes
 Value Taken    Lamda =  -0.00005846
 Step Taken.  Stepsize is  0.036875

                             Maximum     Tolerance    Cnvgd?
         Gradient           0.001047      0.000300      NO
         Displacement       0.027909      0.001200      NO
         Energy change     -0.000249      0.000001      NO


 New Cartesian Coordinates Obtained by Inverse Iteration

 Displacement from previous Coordinates is:  0.091827
 ----------------------------------------------------------------
             Standard Nuclear Orientation (Angstroms)
    I     Atom           X                Y                Z
 ----------------------------------------------------------------
    1      S       1.7982404022    -1.0785174961     0.5691431128
    2      C       3.1989571261    -0.1567467881     0.1311240628
    3      C       2.8597540709     0.9970338522    -0.5276647092
    4      C       1.4504440972     1.1424716286    -0.6957721820
    5      C       0.7242141224     0.1022181710    -0.1596749546
    6      H       0.9820399593     1.9746164865    -1.2098620254
    7      C      -0.7242141224    -0.1022181710    -0.1596749546
    8      S      -1.7982404022     1.0785174961     0.5691431128
    9      C      -1.4504440972    -1.1424716286    -0.6957721820
   10      C      -3.1989571261     0.1567467881     0.1311240628
   11      C      -2.8597540709    -0.9970338522    -0.5276647092
   12      H      -3.5883088263    -1.7138346112    -0.8901242821
   13      H       4.1870281976    -0.5195667322     0.3813317452
   14      H       3.5883088263     1.7138346112    -0.8901242821
   15      H      -4.1870281976     0.5195667322     0.3813317452
   16      H      -0.9820399593    -1.9746164865    -1.2098620254
 ----------------------------------------------------------------
 Molecular Point Group                 C2    NOp =  2
 Largest Abelian Subgroup              C2    NOp =  2
 Nuclear Repulsion Energy =   627.8938629061 hartrees
 There are       43 alpha and       43 beta electrons
 Applying Cartesian multipole field
    Component          Value
    ---------          -----
     (2,0,0)        1.00000E-11
     (0,2,0)        2.00000E-11
     (0,0,2)       -3.00000E-11
 Nucleus-field energy     =     0.0000000180 hartrees
 Requested basis set is 6-31++G(d,p)
 There are 76 shells and 234 basis functions
 A cutoff of  1.0D-11 yielded   2492 shell pairs
 There are     24608 function pairs
 Smallest overlap matrix eigenvalue = 1.11E-06

 Q-Chem warning in module /project/projectdirs/jcesr/qchem/qc44/cnl_qc441/compile/cori/qc_src/stvman/mkSTV.C, line 257:

 Overlap eigenvalue is smaller than square root of threshold

 Guess MOs from SCF MO coefficient file
 Reading MOs from coefficient file
 Reading MOs from coefficient file
 A restricted hybrid HF-DFT SCF calculation will be
 performed using Pulay DIIS extrapolation
 Exchange:     0.2000 Hartree-Fock + 0.0800 Slater + 0.7200 B88
 Correlation:  0.1900 VWN1RPA + 0.8100 LYP
 Using SG-1 standard quadrature grid
 SCF converges when DIIS error is below 1.0E-08
 Geometry optimization detected.  Setting ReadMinima to 0
 Setting SaveMinima to 0
 ---------------------------------------
  Cycle       Energy         DIIS Error
 ---------------------------------------
    1   -1104.8393152288      3.09E-04
    2   -1104.8389880353      3.98E-05
    3   -1104.8389606510      7.28E-05
    4   -1104.8390025841      1.13E-05
    5   -1104.8390033380      5.53E-06
    6   -1104.8390035464      1.97E-06
    7   -1104.8390035732      5.01E-07
    8   -1104.8390035751      1.37E-07
    9   -1104.8390035762      2.35E-08
   10   -1104.8390035752      8.33E-09 Convergence criterion met
 ---------------------------------------
 SCF time:  CPU 5.35 s  wall 4.68 s
 SCF   energy in the final basis set = -1104.8390035752
 Total energy in the final basis set = -1104.8390035752
 
 --------------------------------------------------------------
             Orbital Energies (a.u.) and Symmetries
 --------------------------------------------------------------
 
 Alpha MOs, Restricted
 -- Occupied --                  
-88.920 -88.920 -10.237 -10.237 -10.224 -10.224 -10.204 -10.204
  1 B     1 A     2 A     2 B     3 B     3 A     4 B     4 A                  
-10.203 -10.203  -7.979  -7.979  -5.943  -5.943  -5.939  -5.939
  5 B     5 A     6 B     6 A     7 B     7 A     8 B     8 A                  
 -5.936  -5.936  -0.898  -0.878  -0.769  -0.745  -0.739  -0.705
  9 B     9 A    10 A    10 B    11 A    11 B    12 A    12 B                  
 -0.601  -0.574  -0.558  -0.534  -0.524  -0.478  -0.417  -0.417
 13 A    13 B    14 A    14 B    15 A    15 B    16 B    16 A                  
 -0.410  -0.405  -0.395  -0.376  -0.374  -0.354  -0.348  -0.264
 17 A    17 B    18 A    19 A    18 B    19 B    20 A    21 A                  
 -0.261  -0.259  -0.226
 22 A    20 B    21 B                                                          
 -- Virtual --                   
 -0.045  -0.019  -0.006  -0.003   0.006   0.011   0.018   0.022
 23 A    22 B    24 A    23 B    25 A    24 B    25 B    26 A                  
  0.028   0.036   0.038   0.039   0.044   0.055   0.061   0.063
 27 A    28 A    26 B    27 B    29 A    28 B    30 A    29 B                  
  0.070   0.076   0.089   0.096   0.103   0.104   0.107   0.109
 30 B    31 A    32 A    31 B    33 A    34 A    32 B    35 A                  
  0.118   0.122   0.127   0.131   0.132   0.133   0.135   0.143
 33 B    34 B    35 B    36 A    36 B    37 A    38 A    37 B                  
  0.144   0.152   0.153   0.164   0.165   0.173   0.177   0.180
 38 B    39 A    40 A    39 B    41 A    40 B    41 B    42 A                  
  0.186   0.189   0.198   0.207   0.211   0.225   0.225   0.232
 43 A    42 B    43 B    44 A    44 B    45 B    45 A    46 A                  
  0.235   0.240   0.261   0.266   0.275   0.281   0.286   0.288
 47 A    46 B    47 B    48 A    49 A    48 B    50 A    49 B                  
  0.311   0.318   0.321   0.337   0.356   0.360   0.375   0.389
 50 B    51 B    51 A    52 A    52 B    53 A    53 B    54 A                  
  0.436   0.461   0.467   0.511   0.521   0.527   0.530   0.572
 54 B    55 B    55 A    56 A    57 A    56 B    57 B    58 B                  
  0.581   0.596   0.617   0.627   0.650   0.659   0.675   0.682
 58 A    59 A    59 B    60 A    60 B    61 B    61 A    62 A                  
  0.697   0.714   0.721   0.725   0.737   0.758   0.764   0.778
 63 A    62 B    63 B    64 A    64 B    65 B    65 A    66 B                  
  0.779   0.804   0.806   0.827   0.835   0.877   0.914   0.941
 66 A    67 B    67 A    68 A    68 B    69 A    69 B    70 A                  
  0.945   0.949   0.962   0.966   0.969   0.987   0.997   1.014
 70 B    71 B    71 A    72 B    72 A    73 A    73 B    74 B                  
  1.017   1.028   1.033   1.072   1.091   1.093   1.100   1.114
 75 B    74 A    75 A    76 A    76 B    77 A    78 A    77 B                  
  1.145   1.180   1.200   1.215   1.258   1.271   1.318   1.349
 78 B    79 A    80 A    79 B    81 A    80 B    81 B    82 A                  
  1.351   1.352   1.366   1.386   1.462   1.463   1.485   1.537
 82 B    83 A    83 B    84 A    85 A    84 B    85 B    86 A                  
  1.549   1.689   1.694   1.760   1.797   1.866   1.873   1.885
 86 B    87 A    87 B    88 A    89 A    88 B    90 A    89 B                  
  1.918   1.922   1.964   1.993   2.003   2.033   2.074   2.098
 90 B    91 A    92 A    91 B    93 A    92 B    93 B    94 A                  
  2.130   2.135   2.181   2.183   2.219   2.259   2.262   2.335
 94 B    95 A    95 B    96 A    96 B    97 A    97 B    98 A                  
  2.367   2.368   2.423   2.436   2.466   2.467   2.494   2.505
 99 A    98 B    99 B   100 A   100 B   101 A   101 B   102 A                  
  2.523   2.524   2.581   2.586   2.599   2.651   2.696   2.707
102 B   103 A   103 B   104 A   104 B   105 A   106 A   105 B                  
  2.746   2.847   2.854   2.893   2.930   3.153   3.185   3.268
106 B   107 A   107 B   108 A   108 B   109 B   109 A   110 B                  
  3.271   3.403   3.423   3.720   3.740   3.971   3.975   4.268
110 A   111 A   111 B   112 A   112 B   113 A   113 B   114 A                  
  4.303   4.319   4.330   4.426   4.536   4.657   4.710
115 A   114 B   115 B   116 A   116 B   117 A   117 B                          
 
 Beta MOs, Restricted
 -- Occupied --                  
-88.920 -88.920 -10.237 -10.237 -10.224 -10.224 -10.204 -10.204
  1 B     1 A     2 A     2 B     3 B     3 A     4 B     4 A                  
-10.203 -10.203  -7.979  -7.979  -5.943  -5.943  -5.939  -5.939
  5 B     5 A     6 B     6 A     7 B     7 A     8 B     8 A                  
 -5.936  -5.936  -0.898  -0.878  -0.769  -0.745  -0.739  -0.705
  9 B     9 A    10 A    10 B    11 A    11 B    12 A    12 B                  
 -0.601  -0.574  -0.558  -0.534  -0.524  -0.478  -0.417  -0.417
 13 A    13 B    14 A    14 B    15 A    15 B    16 B    16 A                  
 -0.410  -0.405  -0.395  -0.376  -0.374  -0.354  -0.348  -0.264
 17 A    17 B    18 A    19 A    18 B    19 B    20 A    21 A                  
 -0.261  -0.259  -0.226
 22 A    20 B    21 B                                                          
 -- Virtual --                   
 -0.045  -0.019  -0.006  -0.003   0.006   0.011   0.018   0.022
 23 A    22 B    24 A    23 B    25 A    24 B    25 B    26 A                  
  0.028   0.036   0.038   0.039   0.044   0.055   0.061   0.063
 27 A    28 A    26 B    27 B    29 A    28 B    30 A    29 B                  
  0.070   0.076   0.089   0.096   0.103   0.104   0.107   0.109
 30 B    31 A    32 A    31 B    33 A    34 A    32 B    35 A                  
  0.118   0.122   0.127   0.131   0.132   0.133   0.135   0.143
 33 B    34 B    35 B    36 A    36 B    37 A    38 A    37 B                  
  0.144   0.152   0.153   0.164   0.165   0.173   0.177   0.180
 38 B    39 A    40 A    39 B    41 A    40 B    41 B    42 A                  
  0.186   0.189   0.198   0.207   0.211   0.225   0.225   0.232
 43 A    42 B    43 B    44 A    44 B    45 B    45 A    46 A                  
  0.235   0.240   0.261   0.266   0.275   0.281   0.286   0.288
 47 A    46 B    47 B    48 A    49 A    48 B    50 A    49 B                  
  0.311   0.318   0.321   0.337   0.356   0.360   0.375   0.389
 50 B    51 B    51 A    52 A    52 B    53 A    53 B    54 A                  
  0.436   0.461   0.467   0.511   0.521   0.527   0.530   0.572
 54 B    55 B    55 A    56 A    57 A    56 B    57 B    58 B                  
  0.581   0.596   0.617   0.627   0.650   0.659   0.675   0.682
 58 A    59 A    59 B    60 A    60 B    61 B    61 A    62 A                  
  0.697   0.714   0.721   0.725   0.737   0.758   0.764   0.778
 63 A    62 B    63 B    64 A    64 B    65 B    65 A    66 B                  
  0.779   0.804   0.806   0.827   0.835   0.877   0.914   0.941
 66 A    67 B    67 A    68 A    68 B    69 A    69 B    70 A                  
  0.945   0.949   0.962   0.966   0.969   0.987   0.997   1.014
 70 B    71 B    71 A    72 B    72 A    73 A    73 B    74 B                  
  1.017   1.028   1.033   1.072   1.091   1.093   1.100   1.114
 75 B    74 A    75 A    76 A    76 B    77 A    78 A    77 B                  
  1.145   1.180   1.200   1.215   1.258   1.271   1.318   1.349
 78 B    79 A    80 A    79 B    81 A    80 B    81 B    82 A                  
  1.351   1.352   1.366   1.386   1.462   1.463   1.485   1.537
 82 B    83 A    83 B    84 A    85 A    84 B    85 B    86 A                  
  1.549   1.689   1.694   1.760   1.797   1.866   1.873   1.885
 86 B    87 A    87 B    88 A    89 A    88 B    90 A    89 B                  
  1.918   1.922   1.964   1.993   2.003   2.033   2.074   2.098
 90 B    91 A    92 A    91 B    93 A    92 B    93 B    94 A                  
  2.130   2.135   2.181   2.183   2.219   2.259   2.262   2.335
 94 B    95 A    95 B    96 A    96 B    97 A    97 B    98 A                  
  2.367   2.368   2.423   2.436   2.466   2.467   2.494   2.505
 99 A    98 B    99 B   100 A   100 B   101 A   101 B   102 A                  
  2.523   2.524   2.581   2.586   2.599   2.651   2.696   2.707
102 B   103 A   103 B   104 A   104 B   105 A   106 A   105 B                  
  2.746   2.847   2.854   2.893   2.930   3.153   3.185   3.268
106 B   107 A   107 B   108 A   108 B   109 B   109 A   110 B                  
  3.271   3.403   3.423   3.720   3.740   3.971   3.975   4.268
110 A   111 A   111 B   112 A   112 B   113 A   113 B   114 A                  
  4.303   4.319   4.330   4.426   4.536   4.657   4.710
115 A   114 B   115 B   116 A   116 B   117 A   117 B                          
 --------------------------------------------------------------
 
          Ground-State Mulliken Net Atomic Charges

     Atom                 Charge (a.u.)
  ----------------------------------------
      1 S                     0.048211
      2 C                    -0.048701
      3 C                    -0.384696
      4 C                     0.240453
      5 C                    -0.296763
      6 H                     0.136690
      7 C                    -0.296763
      8 S                     0.048211
      9 C                     0.240453
     10 C                    -0.048701
     11 C                    -0.384696
     12 H                     0.117264
     13 H                     0.187542
     14 H                     0.117264
     15 H                     0.187542
     16 H                     0.136690
  ----------------------------------------
  Sum of atomic charges =     0.000000

 -----------------------------------------------------------------
                    Cartesian Multipole Moments
 -----------------------------------------------------------------
    Charge (ESU x 10^10)
                 0.0000
    Dipole Moment (Debye)
         X      -0.0000      Y       0.0000      Z      -0.5687
       Tot       0.5687
    Quadrupole Moments (Debye-Ang)
        XX     -61.1808     XY       1.3779     YY     -70.6208
        XZ      -0.0000     YZ      -0.0000     ZZ     -76.0183
    Octopole Moments (Debye-Ang^2)
       XXX      -0.0000    XXY       0.0000    XYY       0.0000
       YYY       0.0000    XXZ       4.8122    XYZ     -11.7116
       YYZ      -6.0173    XZZ       0.0000    YZZ       0.0000
       ZZZ       3.8267
    Hexadecapole Moments (Debye-Ang^3)
      XXXX   -1892.7010   XXXY     -14.1816   XXYY    -420.1155
      XYYY      10.4445   YYYY    -474.1479   XXXZ      -0.0000
      XXYZ      -0.0000   XYYZ      -0.0000   YYYZ      -0.0000
      XXZZ    -423.7730   XYZZ       1.2019   YYZZ    -109.3789
      XZZZ      -0.0000   YZZZ      -0.0000   ZZZZ    -228.9790
 -----------------------------------------------------------------
 Calculating analytic gradient of the SCF energy
 Gradient of SCF Energy
            1           2           3           4           5           6
    1   0.0000824  -0.0000287   0.0000339   0.0000734   0.0002270  -0.0000626
    2  -0.0002278  -0.0001760   0.0003215  -0.0007720   0.0015348   0.0000497
    3   0.0004839   0.0002681  -0.0001611  -0.0014471   0.0011500  -0.0002508
            7           8           9          10          11          12
    1  -0.0002270  -0.0000824  -0.0000734   0.0000287  -0.0000339  -0.0000928
    2  -0.0015348   0.0002278   0.0007720   0.0001760  -0.0003215  -0.0001796
    3   0.0011500   0.0004839  -0.0014471   0.0002681  -0.0001611  -0.0000878
           13          14          15          16
    1   0.0001457   0.0000928  -0.0001457   0.0000626
    2  -0.0001222   0.0001796   0.0001222  -0.0000497
    3   0.0000447  -0.0000878   0.0000447  -0.0002508
 Max gradient component =       1.535E-03
 RMS gradient           =       5.442E-04
 Gradient time:  CPU 1.89 s  wall 1.93 s
 Geometry Optimization Parameters
   NAtoms,    NIC,     NZ,  NCons,   NDum,   NFix, NCnnct, MaxDiis
       16     111       0       1       0       0       0       0

 Cartesian Hessian Update
 Hessian Updated using BFGS Update


** CONSTRAINED OPTIMIZATION IN DELOCALIZED INTERNAL COORDINATES **
   Searching for a Minimum

   Optimization Cycle:   3

                       Coordinates (Angstroms)
     ATOM                X               Y               Z
      1  S         1.7982404022   -1.0785174961    0.5691431128
      2  C         3.1989571261   -0.1567467881    0.1311240628
      3  C         2.8597540709    0.9970338522   -0.5276647092
      4  C         1.4504440972    1.1424716286   -0.6957721820
      5  C         0.7242141224    0.1022181710   -0.1596749546
      6  H         0.9820399593    1.9746164865   -1.2098620254
      7  C        -0.7242141224   -0.1022181710   -0.1596749546
      8  S        -1.7982404022    1.0785174961    0.5691431128
      9  C        -1.4504440972   -1.1424716286   -0.6957721820
     10  C        -3.1989571261    0.1567467881    0.1311240628
     11  C        -2.8597540709   -0.9970338522   -0.5276647092
     12  H        -3.5883088263   -1.7138346112   -0.8901242821
     13  H         4.1870281976   -0.5195667322    0.3813317452
     14  H         3.5883088263    1.7138346112   -0.8901242821
     15  H        -4.1870281976    0.5195667322    0.3813317452
     16  H        -0.9820399593   -1.9746164865   -1.2098620254
   Point Group: c2    Number of degrees of freedom:    22


   Energy is  -1104.839003575

              Constraints and their Current Values
                                        Value     Constraint
   Dihedral:        4   5   7   9      120.000      120.000
 Hessian Updated using BFGS Update

 21 Hessian modes will be used to form the next step
  Hessian Eigenvalues:
     0.011710    0.045000    0.045002    0.045004    0.045127    0.045252
     0.158197    0.160023    0.161105    0.223006    0.249736    0.286789
     0.296821    0.314433    0.357338    0.358575    0.362490    0.404144
     0.430996    0.486484    0.546392

 Minimum Search - Taking Simple RFO Step
 Searching for Lamda that Minimizes Along All modes
 Value Taken    Lamda =  -0.00008543
 Step Taken.  Stepsize is  0.082835

                             Maximum     Tolerance    Cnvgd?
         Gradient           0.000847      0.000300      NO
         Displacement       0.063627      0.001200      NO
         Energy change     -0.000046      0.000001      NO


 New Cartesian Coordinates Obtained by Inverse Iteration

 Displacement from previous Coordinates is:  0.208637
 ----------------------------------------------------------------
             Standard Nuclear Orientation (Angstroms)
    I     Atom           X                Y                Z
 ----------------------------------------------------------------
    1      S       1.8044956526    -1.0886951989     0.5555389685
    2      C       3.2007664982    -0.1655804726     0.1087299683
    3      C       2.8554924380     0.9978575957    -0.5292147444
    4      C       1.4441613114     1.1488845001    -0.6748947931
    5      C       0.7240100331     0.1051172192    -0.1382676955
    6      H       0.9681582097     1.9886318033    -1.1688078931
    7      C      -0.7240100331    -0.1051172192    -0.1382676955
    8      S      -1.8044956526     1.0886951989     0.5555389685
    9      C      -1.4441613114    -1.1488845001    -0.6748947931
   10      C      -3.2007664982     0.1655804726     0.1087299683
   11      C      -2.8554924380    -0.9978575957    -0.5292147444
   12      H      -3.5812496583    -1.7165052430    -0.8927739952
   13      H       4.1924689864    -0.5318309040     0.3381909519
   14      H       3.5812496583     1.7165052430    -0.8927739952
   15      H      -4.1924689864     0.5318309040     0.3381909519
   16      H      -0.9681582097    -1.9886318033    -1.1688078931
 ----------------------------------------------------------------
 Molecular Point Group                 C2    NOp =  2
 Largest Abelian Subgroup              C2    NOp =  2
 Nuclear Repulsion Energy =   628.0275119809 hartrees
 There are       43 alpha and       43 beta electrons
 Applying Cartesian multipole field
    Component          Value
    ---------          -----
     (2,0,0)        1.00000E-11
     (0,2,0)        2.00000E-11
     (0,0,2)       -3.00000E-11
 Nucleus-field energy     =     0.0000000182 hartrees
 Requested basis set is 6-31++G(d,p)
 There are 76 shells and 234 basis functions
 A cutoff of  1.0D-11 yielded   2494 shell pairs
 There are     24620 function pairs
 Smallest overlap matrix eigenvalue = 1.09E-06

 Q-Chem warning in module /project/projectdirs/jcesr/qchem/qc44/cnl_qc441/compile/cori/qc_src/stvman/mkSTV.C, line 257:

 Overlap eigenvalue is smaller than square root of threshold

 Guess MOs from SCF MO coefficient file
 Reading MOs from coefficient file
 Reading MOs from coefficient file
 A restricted hybrid HF-DFT SCF calculation will be
 performed using Pulay DIIS extrapolation
 Exchange:     0.2000 Hartree-Fock + 0.0800 Slater + 0.7200 B88
 Correlation:  0.1900 VWN1RPA + 0.8100 LYP
 Using SG-1 standard quadrature grid
 SCF converges when DIIS error is below 1.0E-08
 Geometry optimization detected.  Setting ReadMinima to 0
 Setting SaveMinima to 0
 ---------------------------------------
  Cycle       Energy         DIIS Error
 ---------------------------------------
    1   -1104.8406416031      7.24E-04
    2   -1104.8389894202      7.99E-05
    3   -1104.8388789761      1.48E-04
    4   -1104.8390508394      1.89E-05
    5   -1104.8390523885      1.27E-05
    6   -1104.8390535038      3.86E-06
    7   -1104.8390536064      1.03E-06
    8   -1104.8390536153      2.41E-07
    9   -1104.8390536168      5.35E-08
   10   -1104.8390536162      1.41E-08
   11   -1104.8390536155      6.65E-09 Convergence criterion met
 ---------------------------------------
 SCF time:  CPU 5.86 s  wall 5.12 s
 SCF   energy in the final basis set = -1104.8390536155
 Total energy in the final basis set = -1104.8390536155
 
 --------------------------------------------------------------
             Orbital Energies (a.u.) and Symmetries
 --------------------------------------------------------------
 
 Alpha MOs, Restricted
 -- Occupied --                  
-88.920 -88.920 -10.237 -10.237 -10.224 -10.224 -10.204 -10.204
  1 B     1 A     2 A     2 B     3 B     3 A     4 A     4 B                  
-10.203 -10.203  -7.979  -7.979  -5.943  -5.943  -5.940  -5.940
  5 B     5 A     6 B     6 A     7 B     7 A     8 B     8 A                  
 -5.936  -5.936  -0.899  -0.878  -0.769  -0.745  -0.739  -0.705
  9 B     9 A    10 A    10 B    11 A    11 B    12 A    12 B                  
 -0.601  -0.574  -0.558  -0.534  -0.524  -0.478  -0.417  -0.417
 13 A    13 B    14 A    14 B    15 A    15 B    16 B    16 A                  
 -0.410  -0.405  -0.396  -0.376  -0.374  -0.354  -0.348  -0.265
 17 A    17 B    18 A    19 A    18 B    19 B    20 A    21 A                  
 -0.262  -0.259  -0.225
 22 A    20 B    21 B                                                          
 -- Virtual --                   
 -0.046  -0.018  -0.006  -0.003   0.007   0.011   0.018   0.022
 23 A    22 B    24 A    23 B    25 A    24 B    25 B    26 A                  
  0.028   0.036   0.039   0.039   0.045   0.055   0.060   0.063
 27 A    28 A    26 B    27 B    29 A    28 B    30 A    29 B                  
  0.070   0.076   0.089   0.095   0.103   0.104   0.106   0.109
 30 B    31 A    32 A    31 B    33 A    34 A    32 B    35 A                  
  0.119   0.122   0.128   0.131   0.133   0.133   0.135   0.142
 33 B    34 B    35 B    36 A    36 B    37 A    38 A    37 B                  
  0.145   0.152   0.154   0.164   0.165   0.172   0.177   0.180
 38 B    39 A    40 A    41 A    39 B    40 B    41 B    42 A                  
  0.186   0.189   0.198   0.206   0.210   0.225   0.226   0.231
 43 A    42 B    43 B    44 A    44 B    45 B    45 A    46 A                  
  0.236   0.240   0.262   0.267   0.275   0.281   0.286   0.287
 47 A    46 B    47 B    48 A    49 A    48 B    50 A    49 B                  
  0.311   0.318   0.321   0.338   0.356   0.360   0.375   0.389
 50 B    51 B    51 A    52 A    52 B    53 A    53 B    54 A                  
  0.436   0.461   0.467   0.513   0.523   0.525   0.531   0.571
 54 B    55 B    55 A    56 A    57 A    56 B    57 B    58 B                  
  0.582   0.596   0.616   0.626   0.652   0.658   0.675   0.680
 58 A    59 A    59 B    60 A    60 B    61 B    61 A    62 A                  
  0.698   0.714   0.721   0.725   0.738   0.759   0.764   0.777
 63 A    62 B    63 B    64 A    64 B    65 B    65 A    66 B                  
  0.780   0.805   0.806   0.828   0.835   0.877   0.914   0.939
 66 A    67 B    67 A    68 A    68 B    69 A    69 B    70 A                  
  0.946   0.950   0.963   0.965   0.967   0.988   0.998   1.014
 70 B    71 B    71 A    72 B    72 A    73 A    73 B    74 B                  
  1.018   1.028   1.033   1.072   1.091   1.093   1.098   1.114
 75 B    74 A    75 A    76 A    76 B    77 A    78 A    77 B                  
  1.147   1.181   1.201   1.214   1.259   1.268   1.319   1.349
 78 B    79 A    80 A    79 B    81 A    80 B    81 B    82 A                  
  1.350   1.353   1.365   1.389   1.458   1.462   1.486   1.543
 82 B    83 A    83 B    84 A    85 A    84 B    85 B    86 A                  
  1.546   1.688   1.694   1.758   1.794   1.869   1.872   1.884
 86 B    87 A    87 B    88 A    89 A    88 B    90 A    89 B                  
  1.920   1.923   1.963   1.992   2.003   2.035   2.077   2.097
 90 B    91 A    92 A    91 B    93 A    92 B    93 B    94 A                  
  2.131   2.136   2.183   2.183   2.220   2.259   2.259   2.337
 94 B    95 A    96 A    95 B    96 B    97 B    97 A    98 A                  
  2.368   2.368   2.423   2.437   2.465   2.467   2.495   2.505
 99 A    98 B    99 B   100 A   100 B   101 A   101 B   102 A                  
  2.524   2.524   2.581   2.586   2.601   2.651   2.696   2.706
102 B   103 A   103 B   104 A   104 B   105 A   106 A   105 B                  
  2.747   2.847   2.854   2.893   2.930   3.154   3.186   3.269
106 B   107 A   107 B   108 A   108 B   109 B   109 A   110 B                  
  3.271   3.403   3.423   3.720   3.741   3.972   3.976   4.267
110 A   111 A   111 B   112 A   112 B   113 A   113 B   114 A                  
  4.304   4.317   4.329   4.425   4.536   4.657   4.710
115 A   114 B   115 B   116 A   116 B   117 A   117 B                          
 
 Beta MOs, Restricted
 -- Occupied --                  
-88.920 -88.920 -10.237 -10.237 -10.224 -10.224 -10.204 -10.204
  1 B     1 A     2 A     2 B     3 B     3 A     4 A     4 B                  
-10.203 -10.203  -7.979  -7.979  -5.943  -5.943  -5.940  -5.940
  5 B     5 A     6 B     6 A     7 B     7 A     8 B     8 A                  
 -5.936  -5.936  -0.899  -0.878  -0.769  -0.745  -0.739  -0.705
  9 B     9 A    10 A    10 B    11 A    11 B    12 A    12 B                  
 -0.601  -0.574  -0.558  -0.534  -0.524  -0.478  -0.417  -0.417
 13 A    13 B    14 A    14 B    15 A    15 B    16 B    16 A                  
 -0.410  -0.405  -0.396  -0.376  -0.374  -0.354  -0.348  -0.265
 17 A    17 B    18 A    19 A    18 B    19 B    20 A    21 A                  
 -0.262  -0.259  -0.225
 22 A    20 B    21 B                                                          
 -- Virtual --                   
 -0.046  -0.018  -0.006  -0.003   0.007   0.011   0.018   0.022
 23 A    22 B    24 A    23 B    25 A    24 B    25 B    26 A                  
  0.028   0.036   0.039   0.039   0.045   0.055   0.060   0.063
 27 A    28 A    26 B    27 B    29 A    28 B    30 A    29 B                  
  0.070   0.076   0.089   0.095   0.103   0.104   0.106   0.109
 30 B    31 A    32 A    31 B    33 A    34 A    32 B    35 A                  
  0.119   0.122   0.128   0.131   0.133   0.133   0.135   0.142
 33 B    34 B    35 B    36 A    36 B    37 A    38 A    37 B                  
  0.145   0.152   0.154   0.164   0.165   0.172   0.177   0.180
 38 B    39 A    40 A    41 A    39 B    40 B    41 B    42 A                  
  0.186   0.189   0.198   0.206   0.210   0.225   0.226   0.231
 43 A    42 B    43 B    44 A    44 B    45 B    45 A    46 A                  
  0.236   0.240   0.262   0.267   0.275   0.281   0.286   0.287
 47 A    46 B    47 B    48 A    49 A    48 B    50 A    49 B                  
  0.311   0.318   0.321   0.338   0.356   0.360   0.375   0.389
 50 B    51 B    51 A    52 A    52 B    53 A    53 B    54 A                  
  0.436   0.461   0.467   0.513   0.523   0.525   0.531   0.571
 54 B    55 B    55 A    56 A    57 A    56 B    57 B    58 B                  
  0.582   0.596   0.616   0.626   0.652   0.658   0.675   0.680
 58 A    59 A    59 B    60 A    60 B    61 B    61 A    62 A                  
  0.698   0.714   0.721   0.725   0.738   0.759   0.764   0.777
 63 A    62 B    63 B    64 A    64 B    65 B    65 A    66 B                  
  0.780   0.805   0.806   0.828   0.835   0.877   0.914   0.939
 66 A    67 B    67 A    68 A    68 B    69 A    69 B    70 A                  
  0.946   0.950   0.963   0.965   0.967   0.988   0.998   1.014
 70 B    71 B    71 A    72 B    72 A    73 A    73 B    74 B                  
  1.018   1.028   1.033   1.072   1.091   1.093   1.098   1.114
 75 B    74 A    75 A    76 A    76 B    77 A    78 A    77 B                  
  1.147   1.181   1.201   1.214   1.259   1.268   1.319   1.349
 78 B    79 A    80 A    79 B    81 A    80 B    81 B    82 A                  
  1.350   1.353   1.365   1.389   1.458   1.462   1.486   1.543
 82 B    83 A    83 B    84 A    85 A    84 B    85 B    86 A                  
  1.546   1.688   1.694   1.758   1.794   1.869   1.872   1.884
 86 B    87 A    87 B    88 A    89 A    88 B    90 A    89 B                  
  1.920   1.923   1.963   1.992   2.003   2.035   2.077   2.097
 90 B    91 A    92 A    91 B    93 A    92 B    93 B    94 A                  
  2.131   2.136   2.183   2.183   2.220   2.259   2.259   2.337
 94 B    95 A    96 A    95 B    96 B    97 B    97 A    98 A                  
  2.368   2.368   2.423   2.437   2.465   2.467   2.495   2.505
 99 A    98 B    99 B   100 A   100 B   101 A   101 B   102 A                  
  2.524   2.524   2.581   2.586   2.601   2.651   2.696   2.706
102 B   103 A   103 B   104 A   104 B   105 A   106 A   105 B                  
  2.747   2.847   2.854   2.893   2.930   3.154   3.186   3.269
106 B   107 A   107 B   108 A   108 B   109 B   109 A   110 B                  
  3.271   3.403   3.423   3.720   3.741   3.972   3.976   4.267
110 A   111 A   111 B   112 A   112 B   113 A   113 B   114 A                  
  4.304   4.317   4.329   4.425   4.536   4.657   4.710
115 A   114 B   115 B   116 A   116 B   117 A   117 B                          
 --------------------------------------------------------------
 
          Ground-State Mulliken Net Atomic Charges

     Atom                 Charge (a.u.)
  ----------------------------------------
      1 S                     0.045466
      2 C                    -0.044348
      3 C                    -0.386867
      4 C                     0.235409
      5 C                    -0.290802
      6 H                     0.136840
      7 C                    -0.290802
      8 S                     0.045466
      9 C                     0.235409
     10 C                    -0.044348
     11 C                    -0.386867
     12 H                     0.116815
     13 H                     0.187488
     14 H                     0.116815
     15 H                     0.187489
     16 H                     0.136840
  ----------------------------------------
  Sum of atomic charges =    -0.000000

 -----------------------------------------------------------------
                    Cartesian Multipole Moments
 -----------------------------------------------------------------
    Charge (ESU x 10^10)
                 0.0000
    Dipole Moment (Debye)
         X      -0.0000      Y       0.0000      Z      -0.5867
       Tot       0.5867
    Quadrupole Moments (Debye-Ang)
        XX     -61.1719     XY       1.2860     YY     -70.5063
        XZ      -0.0000     YZ       0.0000     ZZ     -76.1764
    Octopole Moments (Debye-Ang^2)
       XXX      -0.0000    XXY       0.0000    XYY      -0.0000
       YYY       0.0000    XXZ       3.9804    XYZ     -11.4369
       YYZ      -5.7879    XZZ      -0.0000    YZZ       0.0000
       ZZZ       4.4692
    Hexadecapole Moments (Debye-Ang^3)
      XXXX   -1892.1307   XXXY     -13.2997   XXYY    -420.4619
      XYYY      13.4182   YYYY    -478.4988   XXXZ      -0.0000
      XXYZ       0.0000   XYYZ      -0.0000   YYYZ       0.0000
      XXZZ    -424.3768   XYZZ       2.4547   YYZZ    -109.9081
      XZZZ      -0.0000   YZZZ       0.0000   ZZZZ    -223.2218
[...]
  3.271   3.404   3.424   3.721   3.742   3.972   3.976   4.268
110 A   111 A   111 B   112 A   112 B   113 A   113 B   114 A                  
  4.304   4.316   4.328   4.425   4.536   4.657   4.711
115 A   114 B   115 B   116 A   116 B   117 A   117 B                          
 --------------------------------------------------------------
 
          Ground-State Mulliken Net Atomic Charges

     Atom                 Charge (a.u.)
  ----------------------------------------
      1 S                     0.043007
      2 C                    -0.041481
      3 C                    -0.388387
      4 C                     0.233696
      5 C                    -0.288141
      6 H                     0.136914
      7 C                    -0.288141
      8 S                     0.043007
      9 C                     0.233696
     10 C                    -0.041481
     11 C                    -0.388387
     12 H                     0.116607
     13 H                     0.187784
     14 H                     0.116607
     15 H                     0.187784
     16 H                     0.136914
  ----------------------------------------
  Sum of atomic charges =    -0.000000

 -----------------------------------------------------------------
                    Cartesian Multipole Moments
 -----------------------------------------------------------------
    Charge (ESU x 10^10)
                -0.0000
    Dipole Moment (Debye)
         X       0.0000      Y      -0.0000      Z      -0.5974
       Tot       0.5974
    Quadrupole Moments (Debye-Ang)
        XX     -61.1649     XY       1.2584     YY     -70.4551
        XZ       0.0000     YZ      -0.0000     ZZ     -76.2376
    Octopole Moments (Debye-Ang^2)
       XXX       0.0000    XXY      -0.0000    XYY       0.0000
       YYY       0.0000    XXZ       3.7006    XYZ     -11.3401
       YYZ      -5.7048    XZZ       0.0000    YZZ       0.0000
       ZZZ       4.7524
    Hexadecapole Moments (Debye-Ang^3)
      XXXX   -1892.3541   XXXY     -13.2777   XXYY    -420.5432
      XYYY      14.7245   YYYY    -480.7248   XXXZ       0.0000
      XXYZ       0.0000   XYYZ      -0.0000   YYYZ      -0.0000
      XXZZ    -424.5402   XYZZ       3.0211   YYZZ    -110.1500
      XZZZ       0.0000   YZZZ      -0.0000   ZZZZ    -220.5174
 -----------------------------------------------------------------
 Calculating analytic gradient of the SCF energy
 Gradient of SCF Energy
            1           2           3           4           5           6
    1  -0.0000004   0.0000161  -0.0000415   0.0002151  -0.0004619   0.0000058
    2   0.0000216   0.0000232   0.0000094  -0.0012316   0.0026377   0.0000178
    3  -0.0000056   0.0000319   0.0000073  -0.0022062   0.0021678   0.0000293
            7           8           9          10          11          12
    1   0.0004619   0.0000004  -0.0002151  -0.0000161   0.0000415  -0.0000001
    2  -0.0026377  -0.0000216   0.0012316  -0.0000232  -0.0000094   0.0000024
    3   0.0021678  -0.0000056  -0.0022062   0.0000319   0.0000073  -0.0000068
           13          14          15          16
    1  -0.0000064   0.0000001   0.0000064  -0.0000058
    2  -0.0000017  -0.0000024   0.0000017  -0.0000178
    3  -0.0000176  -0.0000068  -0.0000176   0.0000293
 Max gradient component =       2.638E-03
 RMS gradient           =       8.734E-04
 Gradient time:  CPU 1.97 s  wall 1.88 s
 Geometry Optimization Parameters
   NAtoms,    NIC,     NZ,  NCons,   NDum,   NFix, NCnnct, MaxDiis
       16     111       0       1       0       0       0       0

 Cartesian Hessian Update
 Hessian Updated using BFGS Update


** CONSTRAINED OPTIMIZATION IN DELOCALIZED INTERNAL COORDINATES **
   Searching for a Minimum

   Optimization Cycle:   7

                       Coordinates (Angstroms)
     ATOM                X               Y               Z
      1  S         1.8074204936   -1.0931417526    0.5489016757
      2  C         3.2022227998   -0.1690708162    0.0973923835
      3  C         2.8530856629    0.9986393911   -0.5297776337
      4  C         1.4415688945    1.1527422220   -0.6644338948
      5  C         0.7226446428    0.1072141174   -0.1282482770
      6  H         0.9659610812    1.9962789118   -1.1520853697
      7  C        -0.7226446428   -0.1072141174   -0.1282482770
      8  S        -1.8074204936    1.0931417526    0.5489016757
      9  C        -1.4415688945   -1.1527422220   -0.6644338948
     10  C        -3.2022227998    0.1690708162    0.0973923835
     11  C        -2.8530856629   -0.9986393911   -0.5297776337
     12  H        -3.5766573711   -1.7192149806   -0.8939005790
     13  H         4.1938292785   -0.5387838023    0.3206524623
     14  H         3.5766573711    1.7192149806   -0.8939005790
     15  H        -4.1938292785    0.5387838023    0.3206524623
     16  H        -0.9659610812   -1.9962789118   -1.1520853697
   Point Group: c2    Number of degrees of freedom:    22


   Energy is  -1104.839066589

              Constraints and their Current Values
                                        Value     Constraint
   Dihedral:        4   5   7   9      120.000      120.000
 Hessian Updated using BFGS Update

 21 Hessian modes will be used to form the next step
  Hessian Eigenvalues:
     0.008956    0.022377    0.045002    0.045023    0.045034    0.045155
     0.151090    0.159944    0.160440    0.222574    0.243162    0.283588
     0.290255    0.313922    0.357280    0.359474    0.362871    0.388659
     0.428526    0.480654    0.539413

 Minimum Search - Taking Simple RFO Step
 Searching for Lamda that Minimizes Along All modes
 Value Taken    Lamda =   0.00000000
 Step Taken.  Stepsize is  0.002189

                             Maximum     Tolerance    Cnvgd?
         Gradient           0.000059      0.000300     YES
         Displacement       0.001335      0.001200      NO
         Energy change     -0.000000      0.000001     YES

 Final energy is   -1104.83906658852     


 ******************************
 **  OPTIMIZATION CONVERGED  **
 ******************************

                       Coordinates (Angstroms)
     ATOM                X               Y               Z
      1  S         1.8074204936   -1.0931417526    0.5489016757
      2  C         3.2022227998   -0.1690708162    0.0973923835
      3  C         2.8530856629    0.9986393911   -0.5297776337
      4  C         1.4415688945    1.1527422220   -0.6644338948
      5  C         0.7226446428    0.1072141174   -0.1282482770
      6  H         0.9659610812    1.9962789118   -1.1520853697
      7  C        -0.7226446428   -0.1072141174   -0.1282482770
      8  S        -1.8074204936    1.0931417526    0.5489016757
      9  C        -1.4415688945   -1.1527422220   -0.6644338948
     10  C        -3.2022227998    0.1690708162    0.0973923835
     11  C        -2.8530856629   -0.9986393911   -0.5297776337
     12  H        -3.5766573711   -1.7192149806   -0.8939005790
     13  H         4.1938292785   -0.5387838023    0.3206524623
     14  H         3.5766573711    1.7192149806   -0.8939005790
     15  H        -4.1938292785    0.5387838023    0.3206524623
     16  H        -0.9659610812   -1.9962789118   -1.1520853697

Z-matrix Print:
$molecule
0 1
S 
C  1 1.732986
H  2 1.081580 1 120.122486
C  2 1.370688 1 111.620906 3 179.942237 0
H  4 1.084145 2 123.360134 1 179.872396 0
C  4 1.426275 2 112.788185 1 0.588339 0
H  6 1.084233 4 124.100231 2 178.526156 0
C  6 1.377489 4 113.437705 2 -0.554990 0
C  8 1.461109 6 128.876841 4 177.232795 0
C  9 1.377489 8 128.876841 6 -119.999984 0
H  10 1.084233 9 122.455430 8 -1.865504 0
C  10 1.426275 9 113.437705 8 177.232795 0
H  12 1.084145 10 123.847534 9 -179.834989 0
C  12 1.370688 10 112.788185 9 -0.554990 0
H  14 1.081580 12 128.256578 10 -179.475288 0
S  14 1.732986 12 111.620906 10 0.588339 0
$end

 
 --------------------------------------------------------------
             Orbital Energies (a.u.) and Symmetries
 --------------------------------------------------------------
 
 Alpha MOs, Restricted
 -- Occupied --                  
-88.920 -88.920 -10.237 -10.237 -10.224 -10.224 -10.204 -10.204
  1 B     1 A     2 A     2 B     3 B     3 A     4 A     4 B                  
-10.203 -10.203  -7.979  -7.979  -5.943  -5.943  -5.939  -5.939
  5 B     5 A     6 B     6 A     7 B     7 A     8 B     8 A                  
 -5.936  -5.936  -0.899  -0.878  -0.769  -0.745  -0.739  -0.705
  9 B     9 A    10 A    10 B    11 A    11 B    12 A    12 B                  
 -0.602  -0.574  -0.558  -0.534  -0.524  -0.478  -0.418  -0.417
 13 A    13 B    14 A    14 B    15 A    15 B    16 B    16 A                  
 -0.409  -0.405  -0.396  -0.376  -0.374  -0.354  -0.347  -0.265
 17 A    17 B    18 A    19 A    18 B    19 B    20 A    21 A                  
 -0.262  -0.259  -0.225
 22 A    20 B    21 B                                                          
 -- Virtual --                   
 -0.046  -0.017  -0.006  -0.003   0.006   0.011   0.018   0.022
 23 A    22 B    24 A    23 B    25 A    24 B    25 B    26 A                  
  0.028   0.036   0.039   0.039   0.045   0.055   0.060   0.062
 27 A    28 A    26 B    27 B    29 A    28 B    30 A    29 B                  
  0.071   0.076   0.090   0.095   0.103   0.105   0.106   0.109
 30 B    31 A    32 A    31 B    33 A    34 A    32 B    35 A                  
  0.119   0.122   0.128   0.131   0.133   0.133   0.135   0.142
 33 B    34 B    35 B    36 A    36 B    37 A    38 A    37 B                  
  0.145   0.152   0.155   0.164   0.165   0.172   0.178   0.180
 38 B    39 A    40 A    41 A    39 B    40 B    41 B    42 A                  
  0.186   0.190   0.199   0.206   0.210   0.226   0.227   0.231
 43 A    42 B    43 B    44 A    44 B    45 B    45 A    46 A                  
  0.236   0.239   0.262   0.267   0.275   0.282   0.286   0.286
 47 A    46 B    47 B    48 A    49 A    48 B    49 B    50 A                  
  0.312   0.318   0.321   0.338   0.356   0.360   0.374   0.389
 50 B    51 B    51 A    52 A    52 B    53 A    53 B    54 A                  
  0.437   0.461   0.467   0.513   0.524   0.525   0.531   0.571
 54 B    55 B    55 A    56 A    57 A    56 B    57 B    58 B                  
  0.582   0.596   0.616   0.625   0.652   0.658   0.675   0.680
 58 A    59 A    59 B    60 A    60 B    61 B    61 A    62 A                  
  0.698   0.714   0.721   0.725   0.738   0.760   0.764   0.777
 63 A    62 B    63 B    64 A    64 B    65 B    65 A    66 B                  
  0.780   0.806   0.806   0.828   0.835   0.876   0.915   0.938
 66 A    67 A    67 B    68 A    68 B    69 A    69 B    70 A                  
  0.947   0.950   0.963   0.965   0.967   0.988   0.998   1.013
 70 B    71 B    71 A    72 B    72 A    73 A    73 B    74 B                  
  1.019   1.028   1.033   1.072   1.092   1.094   1.097   1.114
 75 B    74 A    75 A    76 A    76 B    77 A    78 A    77 B                  
  1.147   1.181   1.201   1.213   1.259   1.268   1.319   1.348
 78 B    79 A    80 A    79 B    81 A    80 B    81 B    82 A                  
  1.349   1.353   1.364   1.390   1.457   1.462   1.486   1.544
 82 B    83 A    83 B    84 A    85 A    84 B    85 B    86 B                  
  1.545   1.687   1.695   1.757   1.794   1.868   1.872   1.885
 86 A    87 A    87 B    88 A    89 A    88 B    90 A    89 B                  
  1.920   1.922   1.963   1.991   2.003   2.036   2.079   2.097
 90 B    91 A    92 A    91 B    93 A    92 B    93 B    94 A                  
  2.130   2.136   2.181   2.183   2.220   2.258   2.259   2.339
 94 B    95 A    96 A    95 B    96 B    97 B    97 A    98 A                  
  2.368   2.368   2.423   2.438   2.464   2.467   2.496   2.505
 99 A    98 B    99 B   100 A   100 B   101 A   101 B   102 A                  
  2.524   2.524   2.582   2.587   2.603   2.652   2.696   2.706
103 A   102 B   103 B   104 A   104 B   105 A   106 A   105 B                  
  2.748   2.847   2.853   2.894   2.930   3.154   3.186   3.269
106 B   107 A   107 B   108 A   108 B   109 B   109 A   110 B                  
  3.271   3.404   3.424   3.721   3.742   3.972   3.976   4.268
110 A   111 A   111 B   112 A   112 B   113 A   113 B   114 A                  
  4.304   4.316   4.328   4.425   4.536   4.657   4.711
115 A   114 B   115 B   116 A   116 B   117 A   117 B                          
 
 Beta MOs, Restricted
 -- Occupied --                  
-88.920 -88.920 -10.237 -10.237 -10.224 -10.224 -10.204 -10.204
  1 B     1 A     2 A     2 B     3 B     3 A     4 A     4 B                  
-10.203 -10.203  -7.979  -7.979  -5.943  -5.943  -5.939  -5.939
  5 B     5 A     6 B     6 A     7 B     7 A     8 B     8 A                  
 -5.936  -5.936  -0.899  -0.878  -0.769  -0.745  -0.739  -0.705
  9 B     9 A    10 A    10 B    11 A    11 B    12 A    12 B                  
 -0.602  -0.574  -0.558  -0.534  -0.524  -0.478  -0.418  -0.417
 13 A    13 B    14 A    14 B    15 A    15 B    16 B    16 A                  
 -0.409  -0.405  -0.396  -0.376  -0.374  -0.354  -0.347  -0.265
 17 A    17 B    18 A    19 A    18 B    19 B    20 A    21 A                  
 -0.262  -0.259  -0.225
 22 A    20 B    21 B                                                          
 -- Virtual --                   
 -0.046  -0.017  -0.006  -0.003   0.006   0.011   0.018   0.022
 23 A    22 B    24 A    23 B    25 A    24 B    25 B    26 A                  
  0.028   0.036   0.039   0.039   0.045   0.055   0.060   0.062
 27 A    28 A    26 B    27 B    29 A    28 B    30 A    29 B                  
  0.071   0.076   0.090   0.095   0.103   0.105   0.106   0.109
 30 B    31 A    32 A    31 B    33 A    34 A    32 B    35 A                  
  0.119   0.122   0.128   0.131   0.133   0.133   0.135   0.142
 33 B    34 B    35 B    36 A    36 B    37 A    38 A    37 B                  
  0.145   0.152   0.155   0.164   0.165   0.172   0.178   0.180
 38 B    39 A    40 A    41 A    39 B    40 B    41 B    42 A                  
  0.186   0.190   0.199   0.206   0.210   0.226   0.227   0.231
 43 A    42 B    43 B    44 A    44 B    45 B    45 A    46 A                  
  0.236   0.239   0.262   0.267   0.275   0.282   0.286   0.286
 47 A    46 B    47 B    48 A    49 A    48 B    49 B    50 A                  
  0.312   0.318   0.321   0.338   0.356   0.360   0.374   0.389
 50 B    51 B    51 A    52 A    52 B    53 A    53 B    54 A                  
  0.437   0.461   0.467   0.513   0.524   0.525   0.531   0.571
 54 B    55 B    55 A    56 A    57 A    56 B    57 B    58 B                  
  0.582   0.596   0.616   0.625   0.652   0.658   0.675   0.680
 58 A    59 A    59 B    60 A    60 B    61 B    61 A    62 A                  
  0.698   0.714   0.721   0.725   0.738   0.760   0.764   0.777
 63 A    62 B    63 B    64 A    64 B    65 B    65 A    66 B                  
  0.780   0.806   0.806   0.828   0.835   0.876   0.915   0.938
 66 A    67 A    67 B    68 A    68 B    69 A    69 B    70 A                  
  0.947   0.950   0.963   0.965   0.967   0.988   0.998   1.013
 70 B    71 B    71 A    72 B    72 A    73 A    73 B    74 B                  
  1.019   1.028   1.033   1.072   1.092   1.094   1.097   1.114
 75 B    74 A    75 A    76 A    76 B    77 A    78 A    77 B                  
  1.147   1.181   1.201   1.213   1.259   1.268   1.319   1.348
 78 B    79 A    80 A    79 B    81 A    80 B    81 B    82 A                  
  1.349   1.353   1.364   1.390   1.457   1.462   1.486   1.544
 82 B    83 A    83 B    84 A    85 A    84 B    85 B    86 B                  
  1.545   1.687   1.695   1.757   1.794   1.868   1.872   1.885
 86 A    87 A    87 B    88 A    89 A    88 B    90 A    89 B                  
  1.920   1.922   1.963   1.991   2.003   2.036   2.079   2.097
 90 B    91 A    92 A    91 B    93 A    92 B    93 B    94 A                  
  2.130   2.136   2.181   2.183   2.220   2.258   2.259   2.339
 94 B    95 A    96 A    95 B    96 B    97 B    97 A    98 A                  
  2.368   2.368   2.423   2.438   2.464   2.467   2.496   2.505
 99 A    98 B    99 B   100 A   100 B   101 A   101 B   102 A                  
  2.524   2.524   2.582   2.587   2.603   2.652   2.696   2.706
103 A   102 B   103 B   104 A   104 B   105 A   106 A   105 B                  
  2.748   2.847   2.853   2.894   2.930   3.154   3.186   3.269
106 B   107 A   107 B   108 A   108 B   109 B   109 A   110 B                  
  3.271   3.404   3.424   3.721   3.742   3.972   3.976   4.268
110 A   111 A   111 B   112 A   112 B   113 A   113 B   114 A                  
  4.304   4.316   4.328   4.425   4.536   4.657   4.711
115 A   114 B   115 B   116 A   116 B   117 A   117 B                          
 --------------------------------------------------------------
 
          Ground-State Mulliken Net Atomic Charges

     Atom                 Charge (a.u.)
  ----------------------------------------
      1 S                     0.043007
      2 C                    -0.041481
      3 C                    -0.388387
      4 C                     0.233696
      5 C                    -0.288141
      6 H                     0.136914
      7 C                    -0.288141
      8 S                     0.043007
      9 C                     0.233696
     10 C                    -0.041481
     11 C                    -0.388387
     12 H                     0.116607
     13 H                     0.187784
     14 H                     0.116607
     15 H                     0.187784
     16 H                     0.136914
  ----------------------------------------
  Sum of atomic charges =    -0.000000

 -----------------------------------------------------------------
                    Cartesian Multipole Moments
 -----------------------------------------------------------------
    Charge (ESU x 10^10)
                -0.0000
    Dipole Moment (Debye)
         X       0.0000      Y      -0.0000      Z      -0.5974
       Tot       0.5974
    Quadrupole Moments (Debye-Ang)
        XX     -61.1649     XY       1.2584     YY     -70.4551
        XZ       0.0000     YZ      -0.0000     ZZ     -76.2376
    Octopole Moments (Debye-Ang^2)
       XXX       0.0000    XXY      -0.0000    XYY       0.0000
       YYY       0.0000    XXZ       3.7006    XYZ     -11.3401
       YYZ      -5.7048    XZZ       0.0000    YZZ       0.0000
       ZZZ       4.7524
    Hexadecapole Moments (Debye-Ang^3)
      XXXX   -1892.3541   XXXY     -13.2777   XXYY    -420.5432
      XYYY      14.7245   YYYY    -480.7248   XXXZ       0.0000
      XXYZ       0.0000   XYYZ      -0.0000   YYYZ      -0.0000
      XXZZ    -424.5402   XYZZ       3.0211   YYZZ    -110.1500
      XZZZ       0.0000   YZZZ      -0.0000   ZZZZ    -220.5174
 -----------------------------------------------------------------
Archival summary:
1\1\nid01043\OPT\ProcedureUnspecified\BasisUnspecified\286\FriSep218:33:422016FriSep218:33:422016\0\\#,OPT,ProcedureUnspecified,BasisUnspecified,\\0,1\S\C,1,1.73299\H,2,1.08158,1,120.122\C,2,1.37069,1,111.621,3,179.942,0\H,4,1.08415,2,123.36,1,179.872,0\C,4,1.42627,2,112.788,1,0.588339,0\H,6,1.08423,4,124.1,2,178.526,0\C,6,1.37749,4,113.438,2,-0.55499,0\C,8,1.46111,6,128.877,4,177.233,0\C,9,1.37749,8,128.877,6,-120,0\H,10,1.08423,9,122.455,8,-1.8655,0\C,10,1.42627,9,113.438,8,177.233,0\H,12,1.08415,10,123.848,9,-179.835,0\C,12,1.37069,10,112.788,9,-0.55499,0\H,14,1.08158,12,128.257,10,-179.475,0\S,14,1.73299,12,111.621,10,0.588339,0\\\@

 Total job time:  69.14s(wall), 78.08s(cpu) 
 Fri Sep  2 18:33:42 2016

        *************************************************************
        *                                                           *
        *  Thank you very much for using Q-Chem.  Have a nice day.  *
        *                                                           *
        *************************************************************


0 sent ACK to 0 
now end server 0 ... 
