srun -N 1 --ntasks-per-node 16 --nodelist nid01044 /global/project/projectdirs/jcesr/qchem/qc44/cnl_qc441/dist/exe/qcprog.cori.exe .pt_dft_40.0.in.48456.qcin.1 /dev/shm/eg_qchem/qchem48456/
Process 1 of 16 is on nid01044 - thread support 0
Process 2 of 16 is on nid01044 - thread support 0
Process 3 of 16 is on nid01044 - thread support 0
Process 4 of 16 is on nid01044 - thread support 0
Process 5 of 16 is on nid01044 - thread support 0
Process 6 of 16 is on nid01044 - thread support 0
Process 0 of 16 is on nid01044 - thread support 0
initial socket setup ...start
Process 15 of 16 is on nid01044 - thread support 0
initial socket setup ...done 
now start server 0 ... 
nid01044 10.128.4
Q-Chem Developer Version! Running on 10.128.4.*
                  Welcome to Q-Chem
     A Quantum Leap Into The Future Of Chemistry


 Q-Chem 4.4, Q-Chem, Inc., Pleasanton, CA (2016)

 Y. Shao,  Z. Gan,  E. Epifanovsky,  A. T. B. Gilbert,  M. Wormit,  
 J. Kussmann,  A. W. Lange,  A. Behn,  J. Deng,  X. Feng,  D. Ghosh,  
 M. Goldey,  P. R. Horn,  L. D. Jacobson,  I. Kaliman,  F.Rob,  
 R. Z. Khaliullin,  T. Kus,  A. Landau,  J. Liu,  E. I. Proynov,  Y. M. Rhee,  
 R. M. Richard,  M. A. Rohrdanz,  R. P. Steele,  E. J. Sundstrom,  
 H. L. Woodcock III,  P. M. Zimmerman,  D. Zuev,  B. Albrecht,  E. Alguire,  
 B. Austin,  S. A. Baeppler,  G. J. O. Beran,  Y. A. Bernard,  E. Berquist,  
 K. Brandhorst,  K. B. Bravaya,  S. T. Brown,  D. Casanova,  C.-M. Chang,  
 Y. Chen,  S. H. Chien,  K. D. Closser,  M. P. Coons,  D. L. Crittenden,  
 S. Dasgupta,  M. Diedenhofen,  R. A. DiStasio Jr.,  H. Do,  A. D. Dutoi,  
 R. G. Edgar,  P.-T. Fang,  S. Fatehi,  Q. Feng,  L. Fusti-Molnar,  
 A. Ghysels,  A. Golubeva-Zadorozhnaya,  J. Gomes,  A. Gunina,  
 M. W. D. Hanson-Heine,  P. H. P. Harbach,  A. W. Hauser,  E. G. Hohenstein,  
 Z. C. Holden,  K. Hui,  T.-C. Jagau,  H. Ji,  B. Kaduk,  K. Khistyaev,  
 Jaehoon Kim,  Jihan Kim,  R. A. King,  P. Klunzinger,  D. Kosenkov,  
 T. Kowalczyk,  C. M. Krauter,  A. Kunitsa,  K. U. Lao,  A. Laurent,  
 K. V. Lawler,  D. Lefrancois,  S. Lehtola,  S. V. Levchenko,  C. Y. Lin,  
 Y.-S. Lin,  F. Liu,  E. Livshits,  R. C. Lochan,  A. Luenser,  P. Manohar,  
 S. F. Manzer,  S.-P. Mao,  Y. Mao,  N. Mardirossian,  A. V. Marenich,  
 L. A. Martinez-Martinez,  S. A. Maurer,  N. J. Mayhall,  J.-M. Mewes,  
 A. F. Morrison,  K. Nanda,  C. M. Oana,  R. Olivares-Amaya,  D. P. O'Neill,  
 J. A. Parkhill,  T. M. Perrine,  R. Peverati,  P. A. Pieniazek,  F. Plasser,  
 A. Prociuk,  D. R. Rehn,  E. Rosta,  N. J. Russ,  N. Sergueev,  
 S. M. Sharada,  S. Sharma,  D. W. Small,  A. Sodt,  T. Stauch,  T. Stein,  
 D. Stuck,  Y.-C. Su,  A. J. W. Thom,  T. Tsuchimochi,  L. Vogt,  O. Vydrov,  
 T. Wang,  M. A. Watson,  J. Wenzel,  A. White,  C. F. Williams,  
 V. Vanovschi,  S. Yeganeh,  S. R. Yost,  Z.-Q. You,  I. Y. Zhang,  X. Zhang,  
 Y. Zhao,  B. R. Brooks,  G. K. L. Chan,  D. M. Chipman,  C. J. Cramer,  
 W. A. Goddard III,  M. S. Gordon,  W. J. Hehre,  A. Klamt,  
 H. F. Schaefer III,  M. W. Schmidt,  C. D. Sherrill,  D. G. Truhlar,  
 A. Warshel,  X. Xu,  A. Aspuru-Guzik,  R. Baer,  A. T. Bell,  N. A. Besley,  
 J.-D. Chai,  A. Dreuw,  B. D. Dunietz,  T. R. Furlani,  S. R. Gwaltney,  
 C.-P. Hsu,  Y. Jung,  J. Kong,  D. S. Lambrecht,  W. Liang,  C. Ochsenfeld,  
 V. A. Rassolov,  L. V. Slipchenko,  J. E. Subotnik,  T. Van Voorhis,  
 J. M. Herbert,  A. I. Krylov,  P. M. W. Gill,  M. Head-Gordon

 Contributors to earlier versions of Q-Chem not listed above: 
 R. D. Adamson,  J. Baker,  E. F. C. Byrd,  A. K. Chakraborty,  C.-L. Cheng,  
 H. Dachsel,  R. J. Doerksen,  G. Hawkins,  A. Heyden,  S. Hirata,  
 G. Kedziora,  F. J. Keil,  C. Kelley,  P. P. Korambath,  W. Kurlancheek,  
 A. M. Lee,  M. S. Lee,  D. Liotard,  I. Lotan,  P. E. Maslen,  N. Nair,  
 D. Neuhauser,  R. Olson,  B. Peters,  J. Ritchie,  N. E. Schultz,  
 N. Shenvi,  A. C. Simmonett,  K. S. Thanthiriwatte,  Q. Wu,  W. Zhang

 Please cite Q-Chem as follows:
 Y. Shao et al., Mol. Phys. 113, 184-215 (2015)
 DOI: 10.1080/00268976.2014.952696

 Q-Chem 4.4.1 for Intel X86 EM64T Linux

 Parts of Q-Chem use Armadillo 5.200.1 (Boston Tea Smuggler).
 http://arma.sourceforge.net/

 Q-Chem begins on Fri Sep  2 18:15:16 2016  

Host: nid01043
0

     Scratch files written to /dev/shm/eg_qchem/qchem48456.0//
 Parallel job on  16  processors

Checking the input file for inconsistencies... 	...done.

--------------------------------------------------------------
User input:
--------------------------------------------------------------
$comment
<SCF Fix Strategy>{
    "current_method_id": 0, 
    "methods": [
        "increase_iter", 
        "rca_diis", 
        "gwh", 
        "gdm", 
        "rca", 
        "core+rca", 
        "fon"
    ], 
    "version": 2.0
}</SCF Fix Strategy>
$end


$molecule
 0  1
 S           1.82267924       -1.19997629        0.28714109
 C           3.20006180       -0.17260711        0.06528466
 C           2.82980603        1.10216298       -0.25610036
 C           1.41909100        1.26345446       -0.34254814
 C           0.71738150        0.10901545       -0.08456145
 H           0.93627498        2.19419272       -0.61095402
 C          -0.71741859       -0.10899254       -0.08455524
 S          -1.46932282       -1.12578174        1.12956371
 C          -1.66904754        0.38135834       -0.94806031
 C          -3.04467512       -0.85025707        0.46304906
 C          -2.99100730       -0.04147350       -0.63622591
 H          -3.86573943        0.25312199       -1.20082403
 H           4.19429620       -0.57452886        0.18632814
 H           3.53860725        1.89960515       -0.43610218
 H          -3.90911709       -1.30253514        0.92443747
 H          -1.42867370        1.04619979       -1.76759251
$end


$rem
         jobtype = opt
        exchange = b3lyp
           basis = 6-31++g**
  max_scf_cycles = 200
      mem_static = 100
       mem_total = 1500
   scf_algorithm = diis
       scf_guess = sad
$end


$opt
CONSTRAINT
tors 4 5 7 9 40.0
ENDCONSTRAINT
$end

--------------------------------------------------------------
 Atom   8: ( -1.6437813798,  0.4313897708,  1.0837744896)
         ->( -1.6437814844,  0.4313898524,  1.0837744643)
 Atom  10: ( -3.1456300770,  0.0924810293,  0.2891161684)
         ->( -3.1456300736,  0.0924808707,  0.2891160839)
 Atom  11: ( -2.9492758124, -0.3678848741, -0.9816807452)
         ->( -2.9492757101, -0.3678851927, -0.9816807135)
 Atom   9: ( -1.5739340001, -0.4393934133, -1.3379481912)
         ->( -1.5739339187, -0.4393931145, -1.3379483513)
 Atom   7: ( -0.7248363413, -0.0340149445, -0.3347612132)
         ->( -0.7248362824, -0.0340149472, -0.3347611664)
 Atom  16: ( -1.2212052723, -0.7555322380, -2.3111210698)
         ->( -1.2212051445, -0.7555316187, -2.3111213022)
 Atom  14: (  3.7580524241,  0.6380091996, -1.6477340799)
         ->(  3.7580525790,  0.6380086858, -1.6477341268)
 Atom  15: ( -4.0768115979,  0.2542308044,  0.8101081283)
         ->( -4.0768116825,  0.2542304797,  0.8101079597)
 ----------------------------------------------------------------
             Standard Nuclear Orientation (Angstroms)
    I     Atom           X                Y                Z
 ----------------------------------------------------------------
    1      S       1.6437814844    -0.4313898524     1.0837744643
    2      C       3.1456300736    -0.0924808707     0.2891160839
    3      C       2.9492757101     0.3678851927    -0.9816807135
    4      C       1.5739339187     0.4393931145    -1.3379483513
    5      C       0.7248362824     0.0340149472    -0.3347611664
    6      H       1.2212051445     0.7555316187    -2.3111213022
    7      C      -0.7248362824    -0.0340149472    -0.3347611664
    8      S      -1.6437814844     0.4313898524     1.0837744643
    9      C      -1.5739339187    -0.4393931145    -1.3379483513
   10      C      -3.1456300736     0.0924808707     0.2891160839
   11      C      -2.9492757101    -0.3678851927    -0.9816807135
   12      H      -3.7580525790    -0.6380086858    -1.6477341268
   13      H       4.0768116825    -0.2542304797     0.8101079597
   14      H       3.7580525790     0.6380086858    -1.6477341268
   15      H      -4.0768116825     0.2542304797     0.8101079597
   16      H      -1.2212051445    -0.7555316187    -2.3111213022
 ----------------------------------------------------------------
 Molecular Point Group                 C2    NOp =  2
 Largest Abelian Subgroup              C2    NOp =  2
 Nuclear Repulsion Energy =   632.8137990815 hartrees
 There are       43 alpha and       43 beta electrons
 Requested basis set is 6-31++G(d,p)
 There are 76 shells and 234 basis functions

 Total QAlloc Memory Limit   1500 MB
 Mega-Array Size        98 MB
 MEM_STATIC part       100 MB
 A cutoff of  1.0D-11 yielded   2491 shell pairs
 There are     24603 function pairs
 
 -------------------------------------------------------
 OpenMP Integral Computing Module                       
 Release: version 1.0, May 2013, Q-Chem Inc. Pittsburgh 
 -------------------------------------------------------
 Integral Job Info:
 Integral job number is                      11
 Integral operator is                         1
 short-range coefficients                     0
 long-range coefficients              100000000
 Omega coefficients                           0
 if combine SR and LR in K                    0
 Integral screening is                        0
 Integral computing path is                   2
 max size of driver memory is            800000
 size of driver memory is                593474
 size of scratch memory is             15166112
 max col of scratch BK array               1296
 max len of scratch array in speh3          155
 max len of scratch index in speh4           18
 max int batch size is                      520
 min int batch size is                       52
 fixed nKL is                                52
 max L of basis functions is                  2
 order of int derivative is                   0
 number of shells is                         76
 number of basis is                         234
 number of cartesian basis is               234
 number of contracted shell pairs          2491
 number of primitive shell pairs           8067
 maxK2 (contraction) of shell pair           36
 max number of K2 of shell pair               1
 max number of CS2 of shell pair            256
 max number of PS2 of shell pair           1500
 mem total for path MDJ                   51992
 -------------------------------------------------------
 Smallest overlap matrix eigenvalue = 1.04E-06

 Q-Chem warning in module /project/projectdirs/jcesr/qchem/qc44/cnl_qc441/compile/cori/qc_src/stvman/mkSTV.C, line 257:

 Overlap eigenvalue is smaller than square root of threshold


 Scale SEOQF with 1.000000e-01/1.000000e-01/1.000000e-01

 Standard Electronic Orientation quadrupole field applied
 Nucleus-field energy     =     0.0000000058 hartrees
 Guess from superposition of atomic densities
 Warning:  Energy on first SCF cycle will be non-variational
 A restricted hybrid HF-DFT SCF calculation will be
 performed using Pulay DIIS extrapolation
 Exchange:     0.2000 Hartree-Fock + 0.0800 Slater + 0.7200 B88
 Correlation:  0.1900 VWN1RPA + 0.8100 LYP
 Using SG-1 standard quadrature grid
 SCF converges when DIIS error is below 1.0E-08
 ---------------------------------------
  Cycle       Energy         DIIS Error
 ---------------------------------------
    1   -1107.2332425908      4.44E-02
    2   -1071.2570153114      1.86E-01
    3   -1077.5573613863      1.88E-01
    4   -1077.2288617446      1.89E-01
    5   -1095.2652270689      2.91E-02
    6   -1088.9889604614      4.32E-02
    7   -1102.9196727377      2.26E-02
    8   -1088.0311944173      2.11E-02
    9   -1100.7787804454      1.67E-02
   10   -1104.5400789844      6.08E-03
   11   -1090.1019098002      1.59E-02
   12   -1090.4973344192      1.49E-02
   13   -1090.5302983815      1.49E-02
   14   -1091.0677690858      1.47E-02
   15   -1126.5315031755      2.91E-02
   16   -1090.3672237344      1.44E-02
   17   -1090.3931632114      1.44E-02
   18   -1096.0517143090      1.08E-02
   19   -1097.9136779814      1.24E-02
   20   -1096.6524024477      1.31E-02
   21   -1097.0692066828      1.36E-02
   22   -1096.3747185868      1.47E-02
   23   -1101.6115786378      4.16E-02
   24   -1102.1182977402      3.31E-02
   25   -1104.6500935370      5.22E-03
   26   -1103.9491463803      1.23E-02
   27   -1104.2477068134      8.21E-03
   28   -1094.6183594146      5.45E-02
   29   -1098.2680105961      2.51E-02
   30   -1099.0012286466      2.36E-02
   31   -1098.3444140960      3.15E-02
   32   -1098.6296429008      2.88E-02
   33   -1097.3188560477      4.25E-02
   34   -1095.9234548216      5.13E-02
   35   -1094.8305438393      6.30E-02
   36   -1095.7047688733      6.69E-02
   37   -1094.7045739019      7.61E-02
   38   -1093.7271238994      8.27E-02
   39   -1095.2607490030      6.65E-02
   40   -1094.6740153479      7.11E-02
   41   -1093.2574643323      8.32E-02
   42   -1100.2202004295      1.45E-02
   43   -1103.4662867948      8.31E-03
   44   -1103.7321592330      6.30E-03
   45   -1103.4725138702      1.08E-02
   46   -1103.7719557732      4.57E-03
   47   -1105.6930726479      1.96E-03
   48   -1104.1962119206      5.56E-03
   49   -1103.6214315910      7.20E-03
   50   -1103.1745701633      7.57E-03
   51   -1104.3886617361      4.49E-03
   52   -1103.2280496013      7.54E-03
   53   -1103.0803516137      8.75E-03
   54   -1103.0448735086      8.57E-03
   55   -1103.1004227391      8.46E-03
   56   -1102.9105807209      9.61E-03
   57   -1102.4806102084      9.52E-03
   58   -1102.3197461340      1.07E-02
   59   -1099.9707877097      3.07E-02
   60   -1099.7425190930      3.14E-02
   61   -1100.4334205949      3.11E-02
   62   -1101.6563993355      2.27E-02
   63   -1103.8774004376      1.72E-02
   64   -1103.6533359324      1.89E-02
   65   -1100.8608232044      4.03E-02
   66   -1098.8965796464      4.40E-02
   67   -1100.7550752141      7.36E-03
   68   -1104.3048606656      7.84E-03
   69   -1104.7870069480      2.12E-03
   70   -1104.7738215110      2.73E-03
   71   -1104.8373123650      4.90E-04
   72   -1104.8382271577      3.29E-04
   73   -1104.8389315087      1.02E-04
   74   -1104.8390258766      4.10E-05
   75   -1104.8390292017      3.53E-06
   76   -1104.8390156327      1.76E-06
   77   -1104.8390129817      4.81E-07
   78   -1104.8390118969      2.15E-07
   79   -1104.8390129393      7.98E-08
   80   -1104.8390122343      1.43E-08
   81   -1104.8390120061      1.47E-08
   82   -1104.8390119399      8.14E-09 Convergence criterion met
 ---------------------------------------
 SCF time:  CPU 36.33 s  wall 30.85 s
 SCF   energy in the final basis set = -1104.8390119399
 Total energy in the final basis set = -1104.8390119399
 
 --------------------------------------------------------------
             Orbital Energies (a.u.) and Symmetries
 --------------------------------------------------------------
 
 Alpha MOs, Restricted
 -- Occupied --                  
-88.919 -88.919 -10.237 -10.237 -10.223 -10.223 -10.203 -10.203
  1 B     1 A     2 A     2 B     3 B     3 A     4 B     4 A                  
-10.202 -10.202  -7.978  -7.978  -5.942  -5.942  -5.939  -5.939
  5 B     5 A     6 B     6 A     7 B     7 A     8 B     8 A                  
 -5.936  -5.936  -0.901  -0.879  -0.772  -0.748  -0.738  -0.706
  9 A     9 B    10 A    10 B    11 A    12 A    11 B    12 B                  
 -0.604  -0.577  -0.557  -0.534  -0.526  -0.477  -0.420  -0.417
 13 A    14 A    13 B    14 B    15 A    15 B    16 A    17 A                  
 -0.411  -0.405  -0.399  -0.375  -0.375  -0.356  -0.346  -0.274
 16 B    17 B    18 A    18 B    19 A    20 A    19 B    20 B                  
 -0.262  -0.261  -0.218
 21 B    21 A    22 A                                                          
 -- Virtual --                   
 -0.051  -0.016  -0.005  -0.001   0.005   0.016   0.017   0.027
 22 B    23 A    24 A    23 B    25 A    26 A    24 B    27 A                  
  0.030   0.035   0.038   0.046   0.047   0.054   0.057   0.068
 25 B    26 B    28 A    27 B    29 A    28 B    30 A    29 B                  
  0.071   0.077   0.093   0.094   0.101   0.104   0.107   0.113
 31 A    30 B    31 B    32 A    32 B    33 A    34 A    35 A                  
  0.114   0.123   0.124   0.132   0.135   0.137   0.141   0.144
 33 B    34 B    36 A    37 A    35 B    36 B    38 A    39 A                  
  0.150   0.151   0.158   0.164   0.169   0.174   0.177   0.184
 37 B    40 A    38 B    39 B    41 A    40 B    42 A    43 A                  
  0.184   0.190   0.194   0.206   0.210   0.219   0.228   0.230
 41 B    42 B    44 A    43 B    44 B    45 A    45 B    46 A                  
  0.243   0.251   0.264   0.265   0.265   0.273   0.302   0.312
 46 B    47 B    48 B    47 A    48 A    49 A    49 B    50 A                  
  0.314   0.317   0.323   0.328   0.355   0.366   0.374   0.392
 51 A    50 B    51 B    52 A    53 A    52 B    53 B    54 A                  
  0.436   0.454   0.469   0.501   0.527   0.537   0.554   0.565
 54 B    55 A    56 A    55 B    57 A    56 B    57 B    58 B                  
  0.567   0.607   0.620   0.626   0.654   0.660   0.670   0.678
 58 A    59 A    59 B    60 A    61 A    60 B    61 B    62 A                  
  0.696   0.714   0.722   0.727   0.727   0.742   0.746   0.751
 63 A    62 B    64 A    63 B    65 A    64 B    65 B    66 A                  
  0.796   0.799   0.815   0.828   0.848   0.891   0.912   0.947
 67 A    66 B    67 B    68 A    68 B    69 A    69 B    70 A                  
  0.949   0.950   0.956   0.968   0.972   0.993   0.996   1.014
 70 B    71 A    71 B    72 A    72 B    73 A    73 B    74 A                  
  1.016   1.052   1.057   1.072   1.084   1.089   1.111   1.111
 74 B    75 A    75 B    76 A    76 B    77 A    78 A    77 B                  
  1.128   1.177   1.191   1.226   1.242   1.268   1.337   1.341
 78 B    79 A    80 A    79 B    80 B    81 A    81 B    82 A                  
  1.351   1.358   1.363   1.388   1.436   1.478   1.501   1.551
 82 B    83 A    83 B    84 A    84 B    85 B    85 A    86 A                  
  1.589   1.682   1.694   1.743   1.788   1.876   1.886   1.896
 86 B    87 B    87 A    88 B    88 A    89 A    90 A    89 B                  
  1.913   1.929   1.941   1.979   2.015   2.031   2.069   2.079
 90 B    91 A    92 A    91 B    92 B    93 A    94 A    93 B                  
  2.140   2.153   2.181   2.203   2.239   2.246   2.269   2.300
 95 A    94 B    95 B    96 A    96 B    97 A    97 B    98 A                  
  2.367   2.369   2.433   2.452   2.465   2.473   2.501   2.509
 99 A    98 B    99 B   100 A   100 B   101 A   101 B   102 A                  
  2.520   2.548   2.585   2.596   2.597   2.672   2.699   2.720
102 B   103 A   104 A   105 A   103 B   104 B   105 B   106 A                  
  2.778   2.785   2.869   2.916   2.968   3.151   3.211   3.276
106 B   107 A   108 A   107 B   108 B   109 A   109 B   110 A                  
  3.277   3.408   3.433   3.723   3.757   3.950   4.002   4.255
110 B   111 A   111 B   112 A   112 B   113 A   113 B   114 A                  
  4.311   4.322   4.335   4.413   4.544   4.656   4.729
115 A   114 B   115 B   116 A   116 B   117 A   117 B                          
 
 Beta MOs, Restricted
 -- Occupied --                  
-88.919 -88.919 -10.237 -10.237 -10.223 -10.223 -10.203 -10.203
  1 B     1 A     2 A     2 B     3 B     3 A     4 B     4 A                  
-10.202 -10.202  -7.978  -7.978  -5.942  -5.942  -5.939  -5.939
  5 B     5 A     6 B     6 A     7 B     7 A     8 B     8 A                  
 -5.936  -5.936  -0.901  -0.879  -0.772  -0.748  -0.738  -0.706
  9 A     9 B    10 A    10 B    11 A    12 A    11 B    12 B                  
 -0.604  -0.577  -0.557  -0.534  -0.526  -0.477  -0.420  -0.417
 13 A    14 A    13 B    14 B    15 A    15 B    16 A    17 A                  
 -0.411  -0.405  -0.399  -0.375  -0.375  -0.356  -0.346  -0.274
 16 B    17 B    18 A    18 B    19 A    20 A    19 B    20 B                  
 -0.262  -0.261  -0.218
 21 B    21 A    22 A                                                          
 -- Virtual --                   
 -0.051  -0.016  -0.005  -0.001   0.005   0.016   0.017   0.027
 22 B    23 A    24 A    23 B    25 A    26 A    24 B    27 A                  
  0.030   0.035   0.038   0.046   0.047   0.054   0.057   0.068
 25 B    26 B    28 A    27 B    29 A    28 B    30 A    29 B                  
  0.071   0.077   0.093   0.094   0.101   0.104   0.107   0.113
 31 A    30 B    31 B    32 A    32 B    33 A    34 A    35 A                  
  0.114   0.123   0.124   0.132   0.135   0.137   0.141   0.144
 33 B    34 B    36 A    37 A    35 B    36 B    38 A    39 A                  
  0.150   0.151   0.158   0.164   0.169   0.174   0.177   0.184
 37 B    40 A    38 B    39 B    41 A    40 B    42 A    43 A                  
  0.184   0.190   0.194   0.206   0.210   0.219   0.228   0.230
 41 B    42 B    44 A    43 B    44 B    45 A    45 B    46 A                  
  0.243   0.251   0.264   0.265   0.265   0.273   0.302   0.312
 46 B    47 B    48 B    47 A    48 A    49 A    49 B    50 A                  
  0.314   0.317   0.323   0.328   0.355   0.366   0.374   0.392
 51 A    50 B    51 B    52 A    53 A    52 B    53 B    54 A                  
  0.436   0.454   0.469   0.501   0.527   0.537   0.554   0.565
 54 B    55 A    56 A    55 B    57 A    56 B    57 B    58 B                  
  0.567   0.607   0.620   0.626   0.654   0.660   0.670   0.678
 58 A    59 A    59 B    60 A    61 A    60 B    61 B    62 A                  
  0.696   0.714   0.722   0.727   0.727   0.742   0.746   0.751
 63 A    62 B    64 A    63 B    65 A    64 B    65 B    66 A                  
  0.796   0.799   0.815   0.828   0.848   0.891   0.912   0.947
 67 A    66 B    67 B    68 A    68 B    69 A    69 B    70 A                  
  0.949   0.950   0.956   0.968   0.972   0.993   0.996   1.014
 70 B    71 A    71 B    72 A    72 B    73 A    73 B    74 A                  
  1.016   1.052   1.057   1.072   1.084   1.089   1.111   1.111
 74 B    75 A    75 B    76 A    76 B    77 A    78 A    77 B                  
  1.128   1.177   1.191   1.226   1.242   1.268   1.337   1.341
 78 B    79 A    80 A    79 B    80 B    81 A    81 B    82 A                  
  1.351   1.358   1.363   1.388   1.436   1.478   1.501   1.551
 82 B    83 A    83 B    84 A    84 B    85 B    85 A    86 A                  
  1.589   1.682   1.694   1.743   1.788   1.876   1.886   1.896
 86 B    87 B    87 A    88 B    88 A    89 A    90 A    89 B                  
  1.913   1.929   1.941   1.979   2.015   2.031   2.069   2.079
 90 B    91 A    92 A    91 B    92 B    93 A    94 A    93 B                  
  2.140   2.153   2.181   2.203   2.239   2.246   2.269   2.300
 95 A    94 B    95 B    96 A    96 B    97 A    97 B    98 A                  
  2.367   2.369   2.433   2.452   2.465   2.473   2.501   2.509
 99 A    98 B    99 B   100 A   100 B   101 A   101 B   102 A                  
  2.520   2.548   2.585   2.596   2.597   2.672   2.699   2.720
102 B   103 A   104 A   105 A   103 B   104 B   105 B   106 A                  
  2.778   2.785   2.869   2.916   2.968   3.151   3.211   3.276
106 B   107 A   108 A   107 B   108 B   109 A   109 B   110 A                  
  3.277   3.408   3.433   3.723   3.757   3.950   4.002   4.255
110 B   111 A   111 B   112 A   112 B   113 A   113 B   114 A                  
  4.311   4.322   4.335   4.413   4.544   4.656   4.729
115 A   114 B   115 B   116 A   116 B   117 A   117 B                          
 --------------------------------------------------------------
 
          Ground-State Mulliken Net Atomic Charges

     Atom                 Charge (a.u.)
  ----------------------------------------
      1 S                    -0.045818
      2 C                    -0.050206
      3 C                    -0.394234
      4 C                     0.293549
      5 C                    -0.243313
      6 H                     0.136965
      7 C                    -0.243313
      8 S                    -0.045818
      9 C                     0.293549
     10 C                    -0.050206
     11 C                    -0.394234
     12 H                     0.115464
     13 H                     0.187592
     14 H                     0.115464
     15 H                     0.187592
     16 H                     0.136965
  ----------------------------------------
  Sum of atomic charges =     0.000000

 -----------------------------------------------------------------
                    Cartesian Multipole Moments
 -----------------------------------------------------------------
    Charge (ESU x 10^10)
                 0.0000
    Dipole Moment (Debye)
         X       0.0000      Y      -0.0000      Z      -0.9886
       Tot       0.9886
    Quadrupole Moments (Debye-Ang)
        XX     -60.9321     XY       0.5840     YY     -77.5841
        XZ      -0.0000     YZ       0.0000     ZZ     -68.7216
    Octopole Moments (Debye-Ang^2)
       XXX       0.0000    XXY       0.0000    XYY       0.0000
       YYY      -0.0000    XXZ       5.5304    XYZ      -9.4029
       YYZ       1.5539    XZZ       0.0000    YZZ      -0.0000
       ZZZ      -6.1645
    Hexadecapole Moments (Debye-Ang^3)
      XXXX   -1866.7000   XXXY      -2.7321   XXYY    -417.2308
      XYYY      -6.1794   YYYY    -165.7244   XXXZ      -0.0000
      XXYZ      -0.0000   XYYZ      -0.0000   YYYZ      -0.0000
      XXZZ    -404.6540   XYZZ       8.1299   YYZZ    -116.0448
      XZZZ      -0.0000   YZZZ       0.0000   ZZZZ    -509.1181
 -----------------------------------------------------------------
 Calculating analytic gradient of the SCF energy
 Gradient of SCF Energy
            1           2           3           4           5           6
    1  -0.0010682   0.0000497  -0.0013283   0.0010419  -0.0012649   0.0009556
    2   0.0016854  -0.0003449   0.0012784   0.0019935  -0.0009586  -0.0022826
    3  -0.0007162  -0.0040718   0.0030274   0.0039554  -0.0027811   0.0004181
            7           8           9          10          11          12
    1   0.0012649   0.0010682  -0.0010419  -0.0000497   0.0013283   0.0010989
    2   0.0009586  -0.0016854  -0.0019935   0.0003449  -0.0012784   0.0005204
    3  -0.0027811  -0.0007162   0.0039554  -0.0040718   0.0030274   0.0009934
           13          14          15          16
    1  -0.0015378  -0.0010989   0.0015378  -0.0009556
    2  -0.0006163  -0.0005204   0.0006163   0.0022826
    3  -0.0008252   0.0009934  -0.0008252   0.0004181
 Max gradient component =       4.072E-03
 RMS gradient           =       1.790E-03
 Gradient time:  CPU 1.91 s  wall 1.92 s
 Geometry Optimization Parameters
   NAtoms,    NIC,     NZ,  NCons,   NDum,   NFix, NCnnct, MaxDiis
       16     111       0       1       0       0       0       0


** CONSTRAINED OPTIMIZATION IN DELOCALIZED INTERNAL COORDINATES **
   Searching for a Minimum

   Optimization Cycle:   1

                       Coordinates (Angstroms)
     ATOM                X               Y               Z
      1  S         1.6437814844   -0.4313898524    1.0837744643
      2  C         3.1456300736   -0.0924808707    0.2891160839
      3  C         2.9492757101    0.3678851927   -0.9816807135
      4  C         1.5739339187    0.4393931145   -1.3379483513
      5  C         0.7248362824    0.0340149472   -0.3347611664
      6  H         1.2212051445    0.7555316187   -2.3111213022
      7  C        -0.7248362824   -0.0340149472   -0.3347611664
      8  S        -1.6437814844    0.4313898524    1.0837744643
      9  C        -1.5739339187   -0.4393931145   -1.3379483513
     10  C        -3.1456300736    0.0924808707    0.2891160839
     11  C        -2.9492757101   -0.3678851927   -0.9816807135
     12  H        -3.7580525790   -0.6380086858   -1.6477341268
     13  H         4.0768116825   -0.2542304797    0.8101079597
     14  H         3.7580525790    0.6380086858   -1.6477341268
     15  H        -4.0768116825    0.2542304797    0.8101079597
     16  H        -1.2212051445   -0.7555316187   -2.3111213022
   Point Group: c2    Number of degrees of freedom:    22


   Energy is  -1104.839011940

              Constraints and their Current Values
                                        Value     Constraint
   Dihedral:        4   5   7   9       40.000       40.000

 Attempting to Generate Delocalized Internal Coordinates

 21 Hessian modes will be used to form the next step
  Hessian Eigenvalues:
     0.045000    0.045000    0.045000    0.045002    0.045004    0.045013
     0.159937    0.159990    0.160000    0.221280    0.237833    0.249997
     0.296078    0.314672    0.357149    0.357543    0.360899    0.380793
     0.408411    0.470750    0.505998

 Minimum Search - Taking Simple RFO Step
 Searching for Lamda that Minimizes Along All modes
 Value Taken    Lamda =  -0.00089429
 Step Taken.  Stepsize is  0.101293

                             Maximum     Tolerance    Cnvgd?
         Gradient           0.006257      0.000300      NO
         Displacement       0.083515      0.001200      NO
         Energy change     *********      0.000001      NO


 New Cartesian Coordinates Obtained by Inverse Iteration

 Displacement from previous Coordinates is:  0.168903
 ----------------------------------------------------------------
             Standard Nuclear Orientation (Angstroms)
    I     Atom           X                Y                Z
 ----------------------------------------------------------------
    1      S       1.6660730396    -0.4472882493     1.0905598700
    2      C       3.1605701002    -0.0915364496     0.2858266367
    3      C       2.9503616687     0.3539194442    -0.9930559491
    4      C       1.5672894548     0.4295287305    -1.3335943823
    5      C       0.7280538564     0.0274394694    -0.3164868993
    6      H       1.1991223365     0.7627564749    -2.2975291604
    7      C      -0.7280538564    -0.0274394694    -0.3164868993
    8      S      -1.6660730396     0.4472882493     1.0905598700
    9      C      -1.5672894548    -0.4295287305    -1.3335943823
   10      C      -3.1605701002     0.0915364496     0.2858266367
   11      C      -2.9503616687    -0.3539194442    -0.9930559491
   12      H      -3.7528836930    -0.6298705303    -1.6679763257
   13      H       4.0997380254    -0.2377480378     0.8020090576
   14      H       3.7528836930     0.6298705303    -1.6679763257
   15      H      -4.0997380254     0.2377480378     0.8020090576
   16      H      -1.1991223365    -0.7627564749    -2.2975291604
 ----------------------------------------------------------------
 Molecular Point Group                 C2    NOp =  2
 Largest Abelian Subgroup              C2    NOp =  2
 Nuclear Repulsion Energy =   630.7109648206 hartrees
 There are       43 alpha and       43 beta electrons
 Applying Cartesian multipole field
    Component          Value
    ---------          -----
     (2,0,0)        1.00000E-11
     (0,2,0)        2.00000E-11
     (0,0,2)       -3.00000E-11
 Nucleus-field energy     =     0.0000000059 hartrees
 Requested basis set is 6-31++G(d,p)
 There are 76 shells and 234 basis functions
 A cutoff of  1.0D-11 yielded   2489 shell pairs
 There are     24591 function pairs
 Smallest overlap matrix eigenvalue = 1.11E-06

 Q-Chem warning in module /project/projectdirs/jcesr/qchem/qc44/cnl_qc441/compile/cori/qc_src/stvman/mkSTV.C, line 257:

 Overlap eigenvalue is smaller than square root of threshold

 Guess MOs from SCF MO coefficient file
 Reading MOs from coefficient file
 Reading MOs from coefficient file
 A restricted hybrid HF-DFT SCF calculation will be
 performed using Pulay DIIS extrapolation
 Exchange:     0.2000 Hartree-Fock + 0.0800 Slater + 0.7200 B88
 Correlation:  0.1900 VWN1RPA + 0.8100 LYP
 Using SG-1 standard quadrature grid
 SCF converges when DIIS error is below 1.0E-08
 Geometry optimization detected.  Setting ReadMinima to 0
 Setting SaveMinima to 0
 ---------------------------------------
  Cycle       Energy         DIIS Error
 ---------------------------------------
    1   -1104.8170071818      8.00E-04
    2   -1104.8391636549      2.11E-04
    3   -1104.8378563213      4.65E-04
    4   -1104.8395317095      2.33E-05
    5   -1104.8395353167      8.23E-06
    6   -1104.8395356873      3.36E-06
    7   -1104.8395357643      1.35E-06
    8   -1104.8395357782      4.32E-07
    9   -1104.8395357779      5.68E-08
   10   -1104.8395357795      1.32E-08
   11   -1104.8395357778      5.62E-09 Convergence criterion met
 ---------------------------------------
 SCF time:  CPU 5.92 s  wall 5.18 s
 SCF   energy in the final basis set = -1104.8395357778
 Total energy in the final basis set = -1104.8395357778
 
 --------------------------------------------------------------
             Orbital Energies (a.u.) and Symmetries
 --------------------------------------------------------------
 
 Alpha MOs, Restricted
 -- Occupied --                  
-88.920 -88.920 -10.238 -10.238 -10.225 -10.225 -10.204 -10.204
  1 B     1 A     2 A     2 B     3 B     3 A     4 B     4 A                  
-10.204 -10.204  -7.979  -7.979  -5.943  -5.943  -5.939  -5.939
  5 B     5 A     6 B     6 A     7 B     7 A     8 B     8 A                  
 -5.936  -5.936  -0.899  -0.878  -0.770  -0.747  -0.738  -0.705
  9 A     9 B    10 A    10 B    11 A    12 A    11 B    12 B                  
 -0.603  -0.576  -0.557  -0.534  -0.525  -0.477  -0.420  -0.417
 13 A    14 A    13 B    14 B    15 A    15 B    16 A    17 A                  
 -0.410  -0.404  -0.398  -0.376  -0.374  -0.356  -0.346  -0.273
 16 B    17 B    18 A    18 B    19 A    20 A    19 B    20 B                  
 -0.261  -0.261  -0.218
 21 B    21 A    22 A                                                          
 -- Virtual --                   
 -0.052  -0.015  -0.005  -0.001   0.004   0.016   0.017   0.026
 22 B    23 A    24 A    23 B    25 A    26 A    24 B    27 A                  
  0.029   0.035   0.038   0.045   0.048   0.053   0.057   0.068
 25 B    26 B    28 A    27 B    29 A    28 B    30 A    29 B                  
  0.071   0.077   0.093   0.094   0.100   0.104   0.106   0.112
 31 A    30 B    31 B    32 A    32 B    33 A    34 A    35 A                  
  0.114   0.123   0.124   0.132   0.135   0.137   0.140   0.143
 33 B    34 B    36 A    37 A    35 B    36 B    38 A    39 A                  
  0.149   0.149   0.156   0.164   0.168   0.173   0.177   0.183
 37 B    40 A    38 B    39 B    41 A    40 B    42 A    41 B                  
  0.184   0.190   0.194   0.205   0.210   0.218   0.226   0.229
 43 A    42 B    44 A    43 B    44 B    45 A    45 B    46 A                  
  0.241   0.251   0.263   0.263   0.265   0.272   0.300   0.310
 46 B    47 B    47 A    48 B    48 A    49 A    49 B    50 A                  
  0.312   0.315   0.322   0.326   0.355   0.365   0.372   0.390
 51 A    50 B    51 B    52 A    53 A    52 B    53 B    54 A                  
  0.435   0.451   0.469   0.499   0.526   0.534   0.553   0.563
 54 B    55 A    56 A    55 B    57 A    56 B    57 B    58 B                  
  0.568   0.607   0.617   0.629   0.653   0.660   0.670   0.675
 58 A    59 A    59 B    60 A    61 A    60 B    61 B    62 A                  
  0.697   0.711   0.721   0.726   0.727   0.741   0.745   0.751
 63 A    62 B    64 A    65 A    63 B    64 B    65 B    66 A                  
  0.794   0.796   0.815   0.828   0.847   0.890   0.909   0.948
 67 A    66 B    67 B    68 A    68 B    69 A    69 B    70 A                  
  0.949   0.950   0.954   0.969   0.974   0.992   0.998   1.011
 70 B    71 A    71 B    72 A    72 B    73 A    73 B    74 A                  
  1.016   1.050   1.055   1.072   1.085   1.087   1.109   1.110
 74 B    75 A    75 B    76 A    76 B    77 A    78 A    77 B                  
  1.126   1.176   1.189   1.226   1.240   1.265   1.331   1.345
 78 B    79 A    80 A    79 B    80 B    81 A    81 B    82 A                  
  1.354   1.359   1.362   1.385   1.440   1.471   1.495   1.548
 82 B    83 A    83 B    84 A    84 B    85 B    85 A    86 A                  
  1.583   1.680   1.693   1.741   1.784   1.875   1.883   1.891
 86 B    87 B    87 A    88 B    88 A    89 A    90 A    89 B                  
  1.909   1.924   1.941   1.974   2.013   2.024   2.068   2.072
 90 B    91 A    92 A    91 B    92 B    93 A    94 A    93 B                  
  2.137   2.152   2.178   2.199   2.233   2.241   2.266   2.298
 95 A    94 B    95 B    96 A    96 B    97 A    97 B    98 A                  
  2.366   2.367   2.428   2.451   2.461   2.467   2.496   2.509
 99 A    98 B    99 B   100 A   101 A   100 B   101 B   102 A                  
  2.515   2.542   2.579   2.591   2.593   2.666   2.692   2.715
102 B   103 A   104 A   105 A   103 B   104 B   105 B   106 A                  
  2.776   2.778   2.862   2.906   2.956   3.143   3.201   3.270
106 B   107 A   108 A   107 B   108 B   109 A   109 B   110 A                  
  3.271   3.402   3.426   3.714   3.748   3.950   3.997   4.255
110 B   111 A   111 B   112 A   112 B   113 A   113 B   114 A                  
  4.308   4.322   4.332   4.411   4.540   4.652   4.721
115 A   114 B   115 B   116 A   116 B   117 A   117 B                          
 
 Beta MOs, Restricted
 -- Occupied --                  
-88.920 -88.920 -10.238 -10.238 -10.225 -10.225 -10.204 -10.204
  1 B     1 A     2 A     2 B     3 B     3 A     4 B     4 A                  
-10.204 -10.204  -7.979  -7.979  -5.943  -5.943  -5.939  -5.939
  5 B     5 A     6 B     6 A     7 B     7 A     8 B     8 A                  
 -5.936  -5.936  -0.899  -0.878  -0.770  -0.747  -0.738  -0.705
  9 A     9 B    10 A    10 B    11 A    12 A    11 B    12 B                  
 -0.603  -0.576  -0.557  -0.534  -0.525  -0.477  -0.420  -0.417
 13 A    14 A    13 B    14 B    15 A    15 B    16 A    17 A                  
 -0.410  -0.404  -0.398  -0.376  -0.374  -0.356  -0.346  -0.273
 16 B    17 B    18 A    18 B    19 A    20 A    19 B    20 B                  
 -0.261  -0.261  -0.218
 21 B    21 A    22 A                                                          
 -- Virtual --                   
 -0.052  -0.015  -0.005  -0.001   0.004   0.016   0.017   0.026
 22 B    23 A    24 A    23 B    25 A    26 A    24 B    27 A                  
  0.029   0.035   0.038   0.045   0.048   0.053   0.057   0.068
 25 B    26 B    28 A    27 B    29 A    28 B    30 A    29 B                  
  0.071   0.077   0.093   0.094   0.100   0.104   0.106   0.112
 31 A    30 B    31 B    32 A    32 B    33 A    34 A    35 A                  
  0.114   0.123   0.124   0.132   0.135   0.137   0.140   0.143
 33 B    34 B    36 A    37 A    35 B    36 B    38 A    39 A                  
  0.149   0.149   0.156   0.164   0.168   0.173   0.177   0.183
 37 B    40 A    38 B    39 B    41 A    40 B    42 A    41 B                  
  0.184   0.190   0.194   0.205   0.210   0.218   0.226   0.229
 43 A    42 B    44 A    43 B    44 B    45 A    45 B    46 A                  
  0.241   0.251   0.263   0.263   0.265   0.272   0.300   0.310
 46 B    47 B    47 A    48 B    48 A    49 A    49 B    50 A                  
  0.312   0.315   0.322   0.326   0.355   0.365   0.372   0.390
 51 A    50 B    51 B    52 A    53 A    52 B    53 B    54 A                  
  0.435   0.451   0.469   0.499   0.526   0.534   0.553   0.563
 54 B    55 A    56 A    55 B    57 A    56 B    57 B    58 B                  
  0.568   0.607   0.617   0.629   0.653   0.660   0.670   0.675
 58 A    59 A    59 B    60 A    61 A    60 B    61 B    62 A                  
  0.697   0.711   0.721   0.726   0.727   0.741   0.745   0.751
 63 A    62 B    64 A    65 A    63 B    64 B    65 B    66 A                  
  0.794   0.796   0.815   0.828   0.847   0.890   0.909   0.948
 67 A    66 B    67 B    68 A    68 B    69 A    69 B    70 A                  
  0.949   0.950   0.954   0.969   0.974   0.992   0.998   1.011
 70 B    71 A    71 B    72 A    72 B    73 A    73 B    74 A                  
  1.016   1.050   1.055   1.072   1.085   1.087   1.109   1.110
 74 B    75 A    75 B    76 A    76 B    77 A    78 A    77 B                  
  1.126   1.176   1.189   1.226   1.240   1.265   1.331   1.345
 78 B    79 A    80 A    79 B    80 B    81 A    81 B    82 A                  
  1.354   1.359   1.362   1.385   1.440   1.471   1.495   1.548
 82 B    83 A    83 B    84 A    84 B    85 B    85 A    86 A                  
  1.583   1.680   1.693   1.741   1.784   1.875   1.883   1.891
 86 B    87 B    87 A    88 B    88 A    89 A    90 A    89 B                  
  1.909   1.924   1.941   1.974   2.013   2.024   2.068   2.072
 90 B    91 A    92 A    91 B    92 B    93 A    94 A    93 B                  
  2.137   2.152   2.178   2.199   2.233   2.241   2.266   2.298
 95 A    94 B    95 B    96 A    96 B    97 A    97 B    98 A                  
  2.366   2.367   2.428   2.451   2.461   2.467   2.496   2.509
 99 A    98 B    99 B   100 A   101 A   100 B   101 B   102 A                  
  2.515   2.542   2.579   2.591   2.593   2.666   2.692   2.715
102 B   103 A   104 A   105 A   103 B   104 B   105 B   106 A                  
  2.776   2.778   2.862   2.906   2.956   3.143   3.201   3.270
106 B   107 A   108 A   107 B   108 B   109 A   109 B   110 A                  
  3.271   3.402   3.426   3.714   3.748   3.950   3.997   4.255
110 B   111 A   111 B   112 A   112 B   113 A   113 B   114 A                  
  4.308   4.322   4.332   4.411   4.540   4.652   4.721
115 A   114 B   115 B   116 A   116 B   117 A   117 B                          
 --------------------------------------------------------------
 
          Ground-State Mulliken Net Atomic Charges

     Atom                 Charge (a.u.)
  ----------------------------------------
      1 S                    -0.031816
      2 C                    -0.055153
      3 C                    -0.397279
      4 C                     0.280259
      5 C                    -0.238989
      6 H                     0.139009
      7 C                    -0.238989
      8 S                    -0.031816
      9 C                     0.280259
     10 C                    -0.055154
     11 C                    -0.397279
     12 H                     0.116078
     13 H                     0.187891
     14 H                     0.116078
     15 H                     0.187891
     16 H                     0.139009
  ----------------------------------------
  Sum of atomic charges =    -0.000000

 -----------------------------------------------------------------
                    Cartesian Multipole Moments
 -----------------------------------------------------------------
    Charge (ESU x 10^10)
                -0.0000
    Dipole Moment (Debye)
         X       0.0000      Y       0.0000      Z      -0.9825
       Tot       0.9825
    Quadrupole Moments (Debye-Ang)
        XX     -60.9103     XY       0.7074     YY     -77.6397
        XZ       0.0000     YZ       0.0000     ZZ     -68.8128
    Octopole Moments (Debye-Ang^2)
       XXX       0.0000    XXY      -0.0000    XYY      -0.0000
       YYY      -0.0000    XXZ       5.5559    XYZ      -9.3737
       YYZ       1.3333    XZZ      -0.0000    YZZ      -0.0000
       ZZZ      -6.8276
    Hexadecapole Moments (Debye-Ang^3)
      XXXX   -1880.3383   XXXY       3.8891   XXYY    -421.5679
      XYYY      -1.1546   YYYY    -166.7135   XXXZ       0.0000
      XXYZ       0.0000   XYYZ       0.0000   YYYZ       0.0000
      XXZZ    -407.9383   XYZZ       9.9595   YYZZ    -116.4300
      XZZZ       0.0000   YZZZ       0.0000   ZZZZ    -512.4344
 -----------------------------------------------------------------
 Calculating analytic gradient of the SCF energy
 Gradient of SCF Energy
            1           2           3           4           5           6
    1   0.0000574   0.0004904   0.0000706  -0.0000871  -0.0002006   0.0001292
    2  -0.0003690   0.0000381   0.0001869   0.0022969  -0.0016263  -0.0012238
    3   0.0002753   0.0001530   0.0001969   0.0012996  -0.0012306  -0.0006607
            7           8           9          10          11          12
    1   0.0002006  -0.0000574   0.0000871  -0.0004904  -0.0000706  -0.0000632
    2   0.0016263   0.0003690  -0.0022969  -0.0000381  -0.0001869   0.0000039
    3  -0.0012306   0.0002753   0.0012996   0.0001530   0.0001969  -0.0000869
           13          14          15          16
    1   0.0000630   0.0000632  -0.0000630  -0.0001292
    2  -0.0002756  -0.0000039   0.0002756   0.0012238
    3   0.0000534  -0.0000869   0.0000534  -0.0006607
 Max gradient component =       2.297E-03
 RMS gradient           =       7.576E-04
 Gradient time:  CPU 1.98 s  wall 1.90 s
 Geometry Optimization Parameters
   NAtoms,    NIC,     NZ,  NCons,   NDum,   NFix, NCnnct, MaxDiis
       16     111       0       1       0       0       0       0

 Cartesian Hessian Update
 Hessian Updated using BFGS Update


** CONSTRAINED OPTIMIZATION IN DELOCALIZED INTERNAL COORDINATES **
   Searching for a Minimum

   Optimization Cycle:   2

                       Coordinates (Angstroms)
     ATOM                X               Y               Z
      1  S         1.6660730396   -0.4472882493    1.0905598700
      2  C         3.1605701002   -0.0915364496    0.2858266367
      3  C         2.9503616687    0.3539194442   -0.9930559491
      4  C         1.5672894548    0.4295287305   -1.3335943823
      5  C         0.7280538564    0.0274394694   -0.3164868993
      6  H         1.1991223365    0.7627564749   -2.2975291604
      7  C        -0.7280538564   -0.0274394694   -0.3164868993
      8  S        -1.6660730396    0.4472882493    1.0905598700
      9  C        -1.5672894548   -0.4295287305   -1.3335943823
     10  C        -3.1605701002    0.0915364496    0.2858266367
     11  C        -2.9503616687   -0.3539194442   -0.9930559491
     12  H        -3.7528836930   -0.6298705303   -1.6679763257
     13  H         4.0997380254   -0.2377480378    0.8020090576
     14  H         3.7528836930    0.6298705303   -1.6679763257
     15  H        -4.0997380254    0.2377480378    0.8020090576
     16  H        -1.1991223365   -0.7627564749   -2.2975291604
   Point Group: c2    Number of degrees of freedom:    22


   Energy is  -1104.839535778

              Constraints and their Current Values
                                        Value     Constraint
   Dihedral:        4   5   7   9       40.000       40.000
 Hessian Updated using BFGS Update

 21 Hessian modes will be used to form the next step
  Hessian Eigenvalues:
     0.033357    0.045000    0.045000    0.045001    0.045007    0.049245
     0.159160    0.159981    0.160019    0.218980    0.223944    0.240710
     0.300346    0.314997    0.357311    0.358813    0.362860    0.387286
     0.430174    0.470730    0.532046

 Minimum Search - Taking Simple RFO Step
 Searching for Lamda that Minimizes Along All modes
 Value Taken    Lamda =  -0.00015003
 Step Taken.  Stepsize is  0.059429

                             Maximum     Tolerance    Cnvgd?
         Gradient           0.002499      0.000300      NO
         Displacement       0.038725      0.001200      NO
         Energy change     -0.000524      0.000001      NO


 New Cartesian Coordinates Obtained by Inverse Iteration

 Displacement from previous Coordinates is:  0.110291
 ----------------------------------------------------------------
             Standard Nuclear Orientation (Angstroms)
    I     Atom           X                Y                Z
 ----------------------------------------------------------------
    1      S       1.6744343781    -0.4520681714     1.0952399825
    2      C       3.1625794029    -0.0961351943     0.2788108543
    3      C       2.9445921698     0.3480933055    -0.9996276025
    4      C       1.5592066044     0.4269865686    -1.3286482620
    5      C       0.7280575178     0.0251883298    -0.3043325511
    6      H       1.1815374328     0.7773796778    -2.2827208097
    7      C      -0.7280575178    -0.0251883298    -0.3043325511
    8      S      -1.6744343781     0.4520681714     1.0952399825
    9      C      -1.5592066044    -0.4269865686    -1.3286482620
   10      C      -3.1625794029     0.0961351943     0.2788108543
   11      C      -2.9445921698    -0.3480933055    -0.9996276025
   12      H      -3.7425345600    -0.6285848191    -1.6782854610
   13      H       4.1057325061    -0.2373066367     0.7893166971
   14      H       3.7425345600     0.6285848191    -1.6782854610
   15      H      -4.1057325061     0.2373066367     0.7893166971
   16      H      -1.1815374328    -0.7773796778    -2.2827208097
 ----------------------------------------------------------------
 Molecular Point Group                 C2    NOp =  2
 Largest Abelian Subgroup              C2    NOp =  2
 Nuclear Repulsion Energy =   630.5220095710 hartrees
 There are       43 alpha and       43 beta electrons
 Applying Cartesian multipole field
    Component          Value
    ---------          -----
     (2,0,0)        1.00000E-11
     (0,2,0)        2.00000E-11
     (0,0,2)       -3.00000E-11
 Nucleus-field energy     =     0.0000000059 hartrees
 Requested basis set is 6-31++G(d,p)
 There are 76 shells and 234 basis functions
 A cutoff of  1.0D-11 yielded   2489 shell pairs
 There are     24591 function pairs
 Smallest overlap matrix eigenvalue = 1.10E-06

 Q-Chem warning in module /project/projectdirs/jcesr/qchem/qc44/cnl_qc441/compile/cori/qc_src/stvman/mkSTV.C, line 257:

 Overlap eigenvalue is smaller than square root of threshold

 Guess MOs from SCF MO coefficient file
 Reading MOs from coefficient file
 Reading MOs from coefficient file
 A restricted hybrid HF-DFT SCF calculation will be
 performed using Pulay DIIS extrapolation
 Exchange:     0.2000 Hartree-Fock + 0.0800 Slater + 0.7200 B88
 Correlation:  0.1900 VWN1RPA + 0.8100 LYP
 Using SG-1 standard quadrature grid
 SCF converges when DIIS error is below 1.0E-08
 Geometry optimization detected.  Setting ReadMinima to 0
 Setting SaveMinima to 0
 ---------------------------------------
  Cycle       Energy         DIIS Error
 ---------------------------------------
    1   -1104.8391401258      4.05E-04
    2   -1104.8395456935      1.05E-04
    3   -1104.8392615984      2.20E-04
    4   -1104.8396322684      1.68E-05
    5   -1104.8396341603      5.18E-06
    6   -1104.8396343164      1.99E-06
    7   -1104.8396343418      8.56E-07
    8   -1104.8396343473      2.33E-07
    9   -1104.8396343478      3.38E-08
   10   -1104.8396343482      1.51E-08
   11   -1104.8396343489      4.57E-09 Convergence criterion met
 ---------------------------------------
 SCF time:  CPU 5.87 s  wall 5.12 s
 SCF   energy in the final basis set = -1104.8396343489
 Total energy in the final basis set = -1104.8396343489
 
 --------------------------------------------------------------
             Orbital Energies (a.u.) and Symmetries
 --------------------------------------------------------------
 
 Alpha MOs, Restricted
 -- Occupied --                  
-88.920 -88.920 -10.238 -10.238 -10.225 -10.225 -10.204 -10.204
  1 B     1 A     2 A     2 B     3 B     3 A     4 B     4 A                  
-10.203 -10.203  -7.979  -7.979  -5.943  -5.943  -5.940  -5.940
  5 B     5 A     6 B     6 A     7 B     7 A     8 B     8 A                  
 -5.936  -5.936  -0.899  -0.878  -0.770  -0.747  -0.738  -0.705
  9 A     9 B    10 A    10 B    11 A    12 A    11 B    12 B                  
 -0.603  -0.576  -0.557  -0.534  -0.525  -0.477  -0.420  -0.417
 13 A    14 A    13 B    14 B    15 A    15 B    16 A    17 A                  
 -0.410  -0.404  -0.398  -0.376  -0.374  -0.356  -0.347  -0.273
 16 B    17 B    18 A    18 B    19 A    20 A    19 B    20 B                  
 -0.261  -0.261  -0.218
 21 B    21 A    22 A                                                          
 -- Virtual --                   
 -0.052  -0.015  -0.005  -0.001   0.004   0.016   0.017   0.026
 22 B    23 A    24 A    23 B    25 A    26 A    24 B    27 A                  
  0.029   0.035   0.038   0.045   0.048   0.053   0.057   0.067
 25 B    26 B    28 A    27 B    29 A    28 B    30 A    29 B                  
  0.071   0.077   0.093   0.094   0.100   0.104   0.106   0.112
 31 A    30 B    31 B    32 A    32 B    33 A    34 A    35 A                  
  0.113   0.123   0.124   0.132   0.135   0.137   0.140   0.143
 33 B    34 B    36 A    37 A    35 B    36 B    38 A    39 A                  
  0.149   0.149   0.156   0.163   0.168   0.174   0.177   0.183
 37 B    40 A    38 B    39 B    41 A    40 B    42 A    41 B                  
  0.184   0.190   0.194   0.205   0.211   0.218   0.225   0.229
 43 A    42 B    44 A    43 B    44 B    45 A    45 B    46 A                  
  0.242   0.251   0.263   0.263   0.266   0.272   0.300   0.310
 46 B    47 B    47 A    48 B    48 A    49 A    49 B    50 A                  
  0.312   0.315   0.322   0.326   0.355   0.365   0.371   0.390
 51 A    50 B    51 B    52 A    53 A    52 B    53 B    54 A                  
  0.436   0.451   0.469   0.499   0.526   0.534   0.553   0.563
 54 B    55 A    56 A    55 B    57 A    56 B    57 B    58 B                  
  0.569   0.607   0.617   0.630   0.653   0.660   0.670   0.674
 58 A    59 A    59 B    60 A    61 A    60 B    61 B    62 A                  
  0.698   0.709   0.721   0.725   0.727   0.741   0.745   0.751
 63 A    62 B    64 A    65 A    63 B    64 B    65 B    66 A                  
  0.795   0.795   0.815   0.827   0.847   0.890   0.909   0.948
 67 A    66 B    67 B    68 A    68 B    69 A    69 B    70 A                  
  0.950   0.950   0.954   0.969   0.975   0.992   1.000   1.010
 70 B    71 A    71 B    72 A    72 B    73 A    73 B    74 A                  
  1.016   1.049   1.055   1.074   1.085   1.087   1.108   1.109
 74 B    75 A    75 B    76 A    76 B    77 A    78 A    77 B                  
  1.126   1.176   1.190   1.226   1.240   1.265   1.328   1.345
 78 B    79 A    80 A    79 B    80 B    81 A    81 B    82 A                  
  1.355   1.360   1.363   1.387   1.445   1.469   1.491   1.548
 82 B    83 A    83 B    84 A    84 B    85 B    85 A    86 A                  
  1.579   1.681   1.693   1.741   1.784   1.877   1.884   1.890
 86 B    87 B    87 A    88 B    88 A    89 A    90 A    89 B                  
  1.909   1.925   1.943   1.973   2.015   2.022   2.070   2.070
 90 B    91 A    92 A    91 B    92 B    93 A    94 A    93 B                  
  2.136   2.154   2.178   2.200   2.232   2.240   2.267   2.300
 95 A    94 B    95 B    96 A    96 B    97 A    97 B    98 A                  
  2.366   2.367   2.427   2.452   2.456   2.470   2.496   2.512
 99 A    98 B    99 B   100 A   101 A   100 B   101 B   102 A                  
  2.514   2.540   2.578   2.591   2.593   2.666   2.691   2.715
102 B   103 A   104 A   105 A   103 B   104 B   105 B   106 A                  
  2.777   2.779   2.862   2.906   2.953   3.143   3.201   3.270
106 B   107 A   108 A   107 B   108 B   109 A   109 B   110 A                  
  3.270   3.402   3.425   3.714   3.748   3.950   3.996   4.256
110 B   111 A   111 B   112 A   112 B   113 A   113 B   114 A                  
  4.309   4.322   4.332   4.410   4.539   4.652   4.720
115 A   114 B   115 B   116 A   116 B   117 A   117 B                          
 
 Beta MOs, Restricted
 -- Occupied --                  
-88.920 -88.920 -10.238 -10.238 -10.225 -10.225 -10.204 -10.204
  1 B     1 A     2 A     2 B     3 B     3 A     4 B     4 A                  
-10.203 -10.203  -7.979  -7.979  -5.943  -5.943  -5.940  -5.940
  5 B     5 A     6 B     6 A     7 B     7 A     8 B     8 A                  
 -5.936  -5.936  -0.899  -0.878  -0.770  -0.747  -0.738  -0.705
  9 A     9 B    10 A    10 B    11 A    12 A    11 B    12 B                  
 -0.603  -0.576  -0.557  -0.534  -0.525  -0.477  -0.420  -0.417
 13 A    14 A    13 B    14 B    15 A    15 B    16 A    17 A                  
 -0.410  -0.404  -0.398  -0.376  -0.374  -0.356  -0.347  -0.273
 16 B    17 B    18 A    18 B    19 A    20 A    19 B    20 B                  
 -0.261  -0.261  -0.218
 21 B    21 A    22 A                                                          
 -- Virtual --                   
 -0.052  -0.015  -0.005  -0.001   0.004   0.016   0.017   0.026
 22 B    23 A    24 A    23 B    25 A    26 A    24 B    27 A                  
  0.029   0.035   0.038   0.045   0.048   0.053   0.057   0.067
 25 B    26 B    28 A    27 B    29 A    28 B    30 A    29 B                  
  0.071   0.077   0.093   0.094   0.100   0.104   0.106   0.112
 31 A    30 B    31 B    32 A    32 B    33 A    34 A    35 A                  
  0.113   0.123   0.124   0.132   0.135   0.137   0.140   0.143
 33 B    34 B    36 A    37 A    35 B    36 B    38 A    39 A                  
  0.149   0.149   0.156   0.163   0.168   0.174   0.177   0.183
 37 B    40 A    38 B    39 B    41 A    40 B    42 A    41 B                  
  0.184   0.190   0.194   0.205   0.211   0.218   0.225   0.229
 43 A    42 B    44 A    43 B    44 B    45 A    45 B    46 A                  
  0.242   0.251   0.263   0.263   0.266   0.272   0.300   0.310
 46 B    47 B    47 A    48 B    48 A    49 A    49 B    50 A                  
  0.312   0.315   0.322   0.326   0.355   0.365   0.371   0.390
 51 A    50 B    51 B    52 A    53 A    52 B    53 B    54 A                  
  0.436   0.451   0.469   0.499   0.526   0.534   0.553   0.563
 54 B    55 A    56 A    55 B    57 A    56 B    57 B    58 B                  
  0.569   0.607   0.617   0.630   0.653   0.660   0.670   0.674
 58 A    59 A    59 B    60 A    61 A    60 B    61 B    62 A                  
  0.698   0.709   0.721   0.725   0.727   0.741   0.745   0.751
 63 A    62 B    64 A    65 A    63 B    64 B    65 B    66 A                  
  0.795   0.795   0.815   0.827   0.847   0.890   0.909   0.948
 67 A    66 B    67 B    68 A    68 B    69 A    69 B    70 A                  
  0.950   0.950   0.954   0.969   0.975   0.992   1.000   1.010
 70 B    71 A    71 B    72 A    72 B    73 A    73 B    74 A                  
  1.016   1.049   1.055   1.074   1.085   1.087   1.108   1.109
 74 B    75 A    75 B    76 A    76 B    77 A    78 A    77 B                  
  1.126   1.176   1.190   1.226   1.240   1.265   1.328   1.345
 78 B    79 A    80 A    79 B    80 B    81 A    81 B    82 A                  
  1.355   1.360   1.363   1.387   1.445   1.469   1.491   1.548
 82 B    83 A    83 B    84 A    84 B    85 B    85 A    86 A                  
  1.579   1.681   1.693   1.741   1.784   1.877   1.884   1.890
 86 B    87 B    87 A    88 B    88 A    89 A    90 A    89 B                  
  1.909   1.925   1.943   1.973   2.015   2.022   2.070   2.070
 90 B    91 A    92 A    91 B    92 B    93 A    94 A    93 B                  
  2.136   2.154   2.178   2.200   2.232   2.240   2.267   2.300
 95 A    94 B    95 B    96 A    96 B    97 A    97 B    98 A                  
  2.366   2.367   2.427   2.452   2.456   2.470   2.496   2.512
 99 A    98 B    99 B   100 A   101 A   100 B   101 B   102 A                  
  2.514   2.540   2.578   2.591   2.593   2.666   2.691   2.715
102 B   103 A   104 A   105 A   103 B   104 B   105 B   106 A                  
  2.777   2.779   2.862   2.906   2.953   3.143   3.201   3.270
106 B   107 A   108 A   107 B   108 B   109 A   109 B   110 A                  
  3.270   3.402   3.425   3.714   3.748   3.950   3.996   4.256
110 B   111 A   111 B   112 A   112 B   113 A   113 B   114 A                  
  4.309   4.322   4.332   4.410   4.539   4.652   4.720
115 A   114 B   115 B   116 A   116 B   117 A   117 B                          
 --------------------------------------------------------------
 
          Ground-State Mulliken Net Atomic Charges

     Atom                 Charge (a.u.)
  ----------------------------------------
      1 S                    -0.023390
      2 C                    -0.060902
      3 C                    -0.395186
      4 C                     0.271305
      5 C                    -0.235772
      6 H                     0.140324
      7 C                    -0.235773
      8 S                    -0.023390
      9 C                     0.271305
     10 C                    -0.060902
     11 C                    -0.395186
     12 H                     0.116290
     13 H                     0.187332
     14 H                     0.116290
     15 H                     0.187332
     16 H                     0.140324
  ----------------------------------------
  Sum of atomic charges =    -0.000000

 -----------------------------------------------------------------
                    Cartesian Multipole Moments
 -----------------------------------------------------------------
    Charge (ESU x 10^10)
                -0.0000
    Dipole Moment (Debye)
         X       0.0000      Y      -0.0000      Z      -0.9725
       Tot       0.9725
    Quadrupole Moments (Debye-Ang)
        XX     -60.9662     XY       0.7750     YY     -77.5866
        XZ       0.0000     YZ      -0.0000     ZZ     -68.8795
    Octopole Moments (Debye-Ang^2)
       XXX      -0.0000    XXY      -0.0000    XYY      -0.0000
       YYY      -0.0000    XXZ       5.3480    XYZ      -9.4109
       YYZ       1.0795    XZZ       0.0000    YZZ      -0.0000
       ZZZ      -7.0413
    Hexadecapole Moments (Debye-Ang^3)
      XXXX   -1881.3150   XXXY       6.7132   XXYY    -421.7821
      XYYY       1.5554   YYYY    -167.0623   XXXZ       0.0000
      XXYZ       0.0000   XYYZ       0.0000   YYYZ       0.0000
      XXZZ    -408.6043   XYZZ      10.9919   YYZZ    -116.3153
      XZZZ       0.0000   YZZZ       0.0000   ZZZZ    -513.7918
 -----------------------------------------------------------------
 Calculating analytic gradient of the SCF energy
 Gradient of SCF Energy
            1           2           3           4           5           6
    1   0.0000818  -0.0001260   0.0001479  -0.0001470   0.0002372   0.0000137
    2  -0.0004525   0.0000819  -0.0002415   0.0017169  -0.0019824  -0.0005661
    3   0.0005503   0.0003869  -0.0004184   0.0006108  -0.0006143  -0.0004382
            7           8           9          10          11          12
    1  -0.0002372  -0.0000818   0.0001470   0.0001260  -0.0001479  -0.0000929
    2   0.0019824   0.0004525  -0.0017169  -0.0000819   0.0002415  -0.0001774
    3  -0.0006143   0.0005503   0.0006108   0.0003869  -0.0004184  -0.0001450
           13          14          15          16
    1   0.0001459   0.0000929  -0.0001459  -0.0000137
    2  -0.0000466   0.0001774   0.0000466   0.0005661
    3   0.0000680  -0.0001450   0.0000680  -0.0004382
 Max gradient component =       1.982E-03
 RMS gradient           =       6.208E-04
 Gradient time:  CPU 1.90 s  wall 1.91 s
 Geometry Optimization Parameters
   NAtoms,    NIC,     NZ,  NCons,   NDum,   NFix, NCnnct, MaxDiis
       16     111       0       1       0       0       0       0

 Cartesian Hessian Update
 Hessian Updated using BFGS Update


** CONSTRAINED OPTIMIZATION IN DELOCALIZED INTERNAL COORDINATES **
   Searching for a Minimum

   Optimization Cycle:   3

                       Coordinates (Angstroms)
     ATOM                X               Y               Z
      1  S         1.6744343781   -0.4520681714    1.0952399825
      2  C         3.1625794029   -0.0961351943    0.2788108543
      3  C         2.9445921698    0.3480933055   -0.9996276025
      4  C         1.5592066044    0.4269865686   -1.3286482620
      5  C         0.7280575178    0.0251883298   -0.3043325511
      6  H         1.1815374328    0.7773796778   -2.2827208097
      7  C        -0.7280575178   -0.0251883298   -0.3043325511
      8  S        -1.6744343781    0.4520681714    1.0952399825
      9  C        -1.5592066044   -0.4269865686   -1.3286482620
     10  C        -3.1625794029    0.0961351943    0.2788108543
     11  C        -2.9445921698   -0.3480933055   -0.9996276025
     12  H        -3.7425345600   -0.6285848191   -1.6782854610
     13  H         4.1057325061   -0.2373066367    0.7893166971
     14  H         3.7425345600    0.6285848191   -1.6782854610
     15  H        -4.1057325061    0.2373066367    0.7893166971
     16  H        -1.1815374328   -0.7773796778   -2.2827208097
   Point Group: c2    Number of degrees of freedom:    22


   Energy is  -1104.839634349

              Constraints and their Current Values
                                        Value     Constraint
   Dihedral:        4   5   7   9       40.000       40.000
 Hessian Updated using BFGS Update

 21 Hessian modes will be used to form the next step
  Hessian Eigenvalues:
     0.021476    0.045000    0.045001    0.045006    0.045601    0.049063
     0.158671    0.159983    0.160327    0.222475    0.225036    0.251451
     0.298905    0.315586    0.357300    0.358946    0.363013    0.386588
     0.427045    0.471002    0.531510

 Minimum Search - Taking Simple RFO Step
 Searching for Lamda that Minimizes Along All modes
 Value Taken    Lamda =  -0.00004537
 Step Taken.  Stepsize is  0.042180

                             Maximum     Tolerance    Cnvgd?
         Gradient           0.000953      0.000300      NO
         Displacement       0.020059      0.001200      NO
         Energy change     -0.000099      0.000001      NO


 New Cartesian Coordinates Obtained by Inverse Iteration

 Displacement from previous Coordinates is:  0.068825
 ----------------------------------------------------------------
             Standard Nuclear Orientation (Angstroms)
    I     Atom           X                Y                Z
 ----------------------------------------------------------------
    1      S       1.6790626349    -0.4537930879     1.0956519990
    2      C       3.1646293357    -0.1003591026     0.2739148348
    3      C       2.9418958207     0.3469895655    -1.0021745634
    4      C       1.5553867323     0.4277963815    -1.3254958308
    5      C       0.7278632228     0.0251780315    -0.2985724725
    6      H       1.1730217035     0.7914455397    -2.2723822981
    7      C      -0.7278632228    -0.0251780315    -0.2985724725
    8      S      -1.6790626349     0.4537930879     1.0956519990
    9      C      -1.5553867323    -0.4277963815    -1.3254958308
   10      C      -3.1646293357     0.1003591026     0.2739148348
   11      C      -2.9418958207    -0.3469895655    -1.0021745634
   12      H      -3.7376719795    -0.6295674243    -1.6821037598
   13      H       4.1094890375    -0.2415656371     0.7809149384
   14      H       3.7376719795     0.6295674243    -1.6821037598
   15      H      -4.1094890375     0.2415656371     0.7809149384
   16      H      -1.1730217035    -0.7914455397    -2.2723822981
 ----------------------------------------------------------------
 Molecular Point Group                 C2    NOp =  2
 Largest Abelian Subgroup              C2    NOp =  2
 Nuclear Repulsion Energy =   630.5374769415 hartrees
 There are       43 alpha and       43 beta electrons
 Applying Cartesian multipole field
    Component          Value
    ---------          -----
     (2,0,0)        1.00000E-11
     (0,2,0)        2.00000E-11
     (0,0,2)       -3.00000E-11
 Nucleus-field energy     =     0.0000000060 hartrees
 Requested basis set is 6-31++G(d,p)
 There are 76 shells and 234 basis functions
 A cutoff of  1.0D-11 yielded   2489 shell pairs
 There are     24591 function pairs
 Smallest overlap matrix eigenvalue = 1.10E-06

 Q-Chem warning in module /project/projectdirs/jcesr/qchem/qc44/cnl_qc441/compile/cori/qc_src/stvman/mkSTV.C, line 257:

 Overlap eigenvalue is smaller than square root of threshold

 Guess MOs from SCF MO coefficient file
 Reading MOs from coefficient file
 Reading MOs from coefficient file
 A restricted hybrid HF-DFT SCF calculation will be
 performed using Pulay DIIS extrapolation
 Exchange:     0.2000 Hartree-Fock + 0.0800 Slater + 0.7200 B88
 Correlation:  0.1900 VWN1RPA + 0.8100 LYP
 Using SG-1 standard quadrature grid
 SCF converges when DIIS error is below 1.0E-08
 Geometry optimization detected.  Setting ReadMinima to 0
 Setting SaveMinima to 0
 ---------------------------------------
  Cycle       Energy         DIIS Error
 ---------------------------------------
    1   -1104.8421581037      2.05E-04
    2   -1104.8396391599      4.98E-05
    3   -1104.8395873547      9.68E-05
    4   -1104.8396583599      1.27E-05
    5   -1104.8396595038      3.69E-06
    6   -1104.8396595816      1.49E-06
    7   -1104.8396595975      5.57E-07
    8   -1104.8396596010      1.53E-07
    9   -1104.8396596014      3.06E-08
   10   -1104.8396596033      1.06E-08
   11   -1104.8396596047      3.45E-09 Convergence criterion met
 ---------------------------------------
 SCF time:  CPU 5.82 s  wall 5.07 s
 SCF   energy in the final basis set = -1104.8396596047
 Total energy in the final basis set = -1104.8396596047
 
 --------------------------------------------------------------
             Orbital Energies (a.u.) and Symmetries
 --------------------------------------------------------------
 
 Alpha MOs, Restricted
 -- Occupied --                  
-88.920 -88.920 -10.238 -10.238 -10.225 -10.225 -10.204 -10.204
  1 B     1 A     2 A     2 B     3 B     3 A     4 B     4 A                  
-10.203 -10.203  -7.979  -7.979  -5.943  -5.943  -5.940  -5.940
  5 B     5 A     6 B     6 A     7 B     7 A     8 B     8 A                  
 -5.936  -5.936  -0.900  -0.878  -0.771  -0.747  -0.738  -0.705
  9 A     9 B    10 A    10 B    11 A    12 A    11 B    12 B                  
 -0.603  -0.576  -0.557  -0.534  -0.525  -0.477  -0.420  -0.417
 13 A    14 A    13 B    14 B    15 A    15 B    16 A    17 A                  
 -0.410  -0.403  -0.398  -0.376  -0.374  -0.356  -0.347  -0.273
 16 B    17 B    18 A    18 B    19 A    20 A    19 B    20 B                  
 -0.261  -0.261  -0.218
 21 B    21 A    22 A                                                          
 -- Virtual --                   
 -0.052  -0.015  -0.005  -0.001   0.004   0.016   0.017   0.026
 22 B    23 A    24 A    23 B    25 A    26 A    24 B    27 A                  
  0.029   0.035   0.038   0.045   0.048   0.053   0.057   0.067
 25 B    26 B    28 A    27 B    29 A    28 B    30 A    29 B                  
  0.071   0.077   0.093   0.094   0.100   0.104   0.107   0.112
 31 A    30 B    31 B    32 A    32 B    33 A    34 A    35 A                  
  0.113   0.123   0.125   0.132   0.135   0.137   0.140   0.143
 33 B    34 B    36 A    37 A    35 B    36 B    38 A    39 A                  
  0.149   0.149   0.155   0.163   0.168   0.174   0.176   0.183
 37 B    40 A    38 B    39 B    41 A    40 B    42 A    41 B                  
  0.184   0.190   0.194   0.205   0.211   0.218   0.225   0.229
 43 A    42 B    44 A    43 B    44 B    45 A    45 B    46 A                  
  0.242   0.251   0.263   0.263   0.266   0.272   0.301   0.310
 46 B    47 B    48 B    47 A    48 A    49 A    49 B    50 A                  
  0.312   0.315   0.322   0.326   0.355   0.365   0.372   0.390
 51 A    50 B    51 B    52 A    53 A    52 B    53 B    54 A                  
  0.436   0.450   0.469   0.499   0.526   0.535   0.553   0.563
 54 B    55 A    56 A    55 B    57 A    56 B    57 B    58 B                  
  0.569   0.608   0.617   0.631   0.653   0.660   0.669   0.674
 58 A    59 A    59 B    60 A    61 A    60 B    61 B    62 A                  
  0.698   0.708   0.721   0.725   0.728   0.741   0.745   0.751
 63 A    62 B    64 A    65 A    63 B    64 B    65 B    66 A                  
  0.795   0.795   0.815   0.827   0.847   0.890   0.909   0.947
 66 B    67 A    67 B    68 A    68 B    69 A    69 B    70 A                  
  0.950   0.950   0.954   0.969   0.975   0.992   1.002   1.011
 70 B    71 A    71 B    72 A    72 B    73 A    73 B    74 A                  
  1.017   1.049   1.055   1.074   1.085   1.087   1.108   1.109
 74 B    75 A    75 B    76 A    76 B    77 A    78 A    77 B                  
  1.126   1.176   1.190   1.226   1.238   1.266   1.327   1.343
 78 B    79 A    80 A    79 B    80 B    81 A    81 B    82 A                  
  1.355   1.360   1.365   1.389   1.448   1.469   1.488   1.550
 82 B    83 A    83 B    84 A    84 B    85 B    85 A    86 A                  
  1.576   1.682   1.693   1.742   1.784   1.877   1.885   1.890
 86 B    87 B    87 A    88 B    88 A    89 A    90 A    89 B                  
  1.909   1.925   1.943   1.973   2.016   2.022   2.070   2.071
 90 B    91 A    92 A    91 B    92 B    93 A    93 B    94 A                  
  2.136   2.156   2.179   2.201   2.231   2.240   2.267   2.302
 95 A    94 B    95 B    96 A    96 B    97 A    97 B    98 A                  
  2.366   2.368   2.427   2.451   2.454   2.472   2.496   2.514
 99 A    98 B    99 B   100 A   101 A   100 B   101 B   102 B                  
  2.514   2.540   2.579   2.592   2.594   2.666   2.691   2.716
102 A   103 A   104 A   105 A   103 B   104 B   105 B   106 A                  
  2.778   2.779   2.862   2.906   2.952   3.143   3.202   3.271
106 B   107 A   108 A   107 B   108 B   109 A   109 B   110 A                  
  3.271   3.403   3.425   3.715   3.748   3.951   3.996   4.257
110 B   111 A   111 B   112 A   112 B   113 A   113 B   114 A                  
  4.309   4.321   4.332   4.410   4.539   4.652   4.720
115 A   114 B   115 B   116 A   116 B   117 A   117 B                          
 
 Beta MOs, Restricted
 -- Occupied --                  
-88.920 -88.920 -10.238 -10.238 -10.225 -10.225 -10.204 -10.204
  1 B     1 A     2 A     2 B     3 B     3 A     4 B     4 A                  
-10.203 -10.203  -7.979  -7.979  -5.943  -5.943  -5.940  -5.940
  5 B     5 A     6 B     6 A     7 B     7 A     8 B     8 A                  
 -5.936  -5.936  -0.900  -0.878  -0.771  -0.747  -0.738  -0.705
  9 A     9 B    10 A    10 B    11 A    12 A    11 B    12 B                  
 -0.603  -0.576  -0.557  -0.534  -0.525  -0.477  -0.420  -0.417
 13 A    14 A    13 B    14 B    15 A    15 B    16 A    17 A                  
 -0.410  -0.403  -0.398  -0.376  -0.374  -0.356  -0.347  -0.273
 16 B    17 B    18 A    18 B    19 A    20 A    19 B    20 B                  
 -0.261  -0.261  -0.218
 21 B    21 A    22 A                                                          
 -- Virtual --                   
 -0.052  -0.015  -0.005  -0.001   0.004   0.016   0.017   0.026
 22 B    23 A    24 A    23 B    25 A    26 A    24 B    27 A                  
  0.029   0.035   0.038   0.045   0.048   0.053   0.057   0.067
 25 B    26 B    28 A    27 B    29 A    28 B    30 A    29 B                  
  0.071   0.077   0.093   0.094   0.100   0.104   0.107   0.112
 31 A    30 B    31 B    32 A    32 B    33 A    34 A    35 A                  
  0.113   0.123   0.125   0.132   0.135   0.137   0.140   0.143
 33 B    34 B    36 A    37 A    35 B    36 B    38 A    39 A                  
  0.149   0.149   0.155   0.163   0.168   0.174   0.176   0.183
 37 B    40 A    38 B    39 B    41 A    40 B    42 A    41 B                  
  0.184   0.190   0.194   0.205   0.211   0.218   0.225   0.229
 43 A    42 B    44 A    43 B    44 B    45 A    45 B    46 A                  
  0.242   0.251   0.263   0.263   0.266   0.272   0.301   0.310
 46 B    47 B    48 B    47 A    48 A    49 A    49 B    50 A                  
  0.312   0.315   0.322   0.326   0.355   0.365   0.372   0.390
 51 A    50 B    51 B    52 A    53 A    52 B    53 B    54 A                  
  0.436   0.450   0.469   0.499   0.526   0.535   0.553   0.563
 54 B    55 A    56 A    55 B    57 A    56 B    57 B    58 B                  
  0.569   0.608   0.617   0.631   0.653   0.660   0.669   0.674
 58 A    59 A    59 B    60 A    61 A    60 B    61 B    62 A                  
  0.698   0.708   0.721   0.725   0.728   0.741   0.745   0.751
 63 A    62 B    64 A    65 A    63 B    64 B    65 B    66 A                  
  0.795   0.795   0.815   0.827   0.847   0.890   0.909   0.947
 66 B    67 A    67 B    68 A    68 B    69 A    69 B    70 A                  
  0.950   0.950   0.954   0.969   0.975   0.992   1.002   1.011
 70 B    71 A    71 B    72 A    72 B    73 A    73 B    74 A                  
  1.017   1.049   1.055   1.074   1.085   1.087   1.108   1.109
 74 B    75 A    75 B    76 A    76 B    77 A    78 A    77 B                  
  1.126   1.176   1.190   1.226   1.238   1.266   1.327   1.343
 78 B    79 A    80 A    79 B    80 B    81 A    81 B    82 A                  
  1.355   1.360   1.365   1.389   1.448   1.469   1.488   1.550
 82 B    83 A    83 B    84 A    84 B    85 B    85 A    86 A                  
  1.576   1.682   1.693   1.742   1.784   1.877   1.885   1.890
 86 B    87 B    87 A    88 B    88 A    89 A    90 A    89 B                  
  1.909   1.925   1.943   1.973   2.016   2.022   2.070   2.071
 90 B    91 A    92 A    91 B    92 B    93 A    93 B    94 A                  
  2.136   2.156   2.179   2.201   2.231   2.240   2.267   2.302
 95 A    94 B    95 B    96 A    96 B    97 A    97 B    98 A                  
  2.366   2.368   2.427   2.451   2.454   2.472   2.496   2.514
 99 A    98 B    99 B   100 A   101 A   100 B   101 B   102 B                  
  2.514   2.540   2.579   2.592   2.594   2.666   2.691   2.716
102 A   103 A   104 A   105 A   103 B   104 B   105 B   106 A                  
  2.778   2.779   2.862   2.906   2.952   3.143   3.202   3.271
106 B   107 A   108 A   107 B   108 B   109 A   109 B   110 A                  
  3.271   3.403   3.425   3.715   3.748   3.951   3.996   4.257
110 B   111 A   111 B   112 A   112 B   113 A   113 B   114 A                  
  4.309   4.321   4.332   4.410   4.539   4.652   4.720
115 A   114 B   115 B   116 A   116 B   117 A   117 B                          
 --------------------------------------------------------------
 
          Ground-State Mulliken Net Atomic Charges

     Atom                 Charge (a.u.)
  ----------------------------------------
      1 S                    -0.019721
      2 C                    -0.062235
      3 C                    -0.393453
      4 C                     0.265369
      5 C                    -0.234666
      6 H                     0.141120
      7 C                    -0.234666
      8 S                    -0.019721
      9 C                     0.265369
     10 C                    -0.062235
     11 C                    -0.393453
     12 H                     0.116408
     13 H                     0.187178
     14 H                     0.116408
     15 H                     0.187178
     16 H                     0.141120
  ----------------------------------------
  Sum of atomic charges =    -0.000000

 -----------------------------------------------------------------
                    Cartesian Multipole Moments
 -----------------------------------------------------------------
    Charge (ESU x 10^10)
                -0.0000
    Dipole Moment (Debye)
         X      -0.0000      Y      -0.0000      Z      -0.9668
       Tot       0.9668
    Quadrupole Moments (Debye-Ang)
        XX     -60.9503     XY       0.7942     YY     -77.5360
        XZ       0.0000     YZ      -0.0000     ZZ     -68.9582
    Octopole Moments (Debye-Ang^2)
       XXX      -0.0000    XXY      -0.0000    XYY      -0.0000
       YYY      -0.0000    XXZ       5.3026    XYZ      -9.4571
       YYZ       0.9509    XZZ      -0.0000    YZZ      -0.0000
       ZZZ      -6.9218
    Hexadecapole Moments (Debye-Ang^3)
      XXXX   -1881.4026   XXXY       7.4043   XXYY    -421.8816
[...]
  3.271   3.403   3.426   3.715   3.749   3.951   3.996   4.257
110 B   111 A   111 B   112 A   112 B   113 A   113 B   114 A                  
  4.309   4.321   4.332   4.411   4.539   4.652   4.721
115 A   114 B   115 B   116 A   116 B   117 A   117 B                          
 --------------------------------------------------------------
 
          Ground-State Mulliken Net Atomic Charges

     Atom                 Charge (a.u.)
  ----------------------------------------
      1 S                    -0.019206
      2 C                    -0.062096
      3 C                    -0.391758
      4 C                     0.265307
      5 C                    -0.237188
      6 H                     0.141368
      7 C                    -0.237189
      8 S                    -0.019206
      9 C                     0.265307
     10 C                    -0.062096
     11 C                    -0.391758
     12 H                     0.116433
     13 H                     0.187140
     14 H                     0.116433
     15 H                     0.187140
     16 H                     0.141368
  ----------------------------------------
  Sum of atomic charges =    -0.000000

 -----------------------------------------------------------------
                    Cartesian Multipole Moments
 -----------------------------------------------------------------
    Charge (ESU x 10^10)
                -0.0000
    Dipole Moment (Debye)
         X       0.0000      Y      -0.0000      Z      -0.9676
       Tot       0.9676
    Quadrupole Moments (Debye-Ang)
        XX     -60.9576     XY       0.7553     YY     -77.5069
        XZ       0.0000     YZ       0.0000     ZZ     -68.9761
    Octopole Moments (Debye-Ang^2)
       XXX       0.0000    XXY      -0.0000    XYY       0.0000
       YYY      -0.0000    XXZ       5.2820    XYZ      -9.5164
       YYZ       0.9619    XZZ       0.0000    YZZ      -0.0000
       ZZZ      -6.7353
    Hexadecapole Moments (Debye-Ang^3)
      XXXX   -1880.7696   XXXY       6.5863   XXYY    -421.7326
      XYYY       2.7721   YYYY    -168.5069   XXXZ       0.0000
      XXYZ       0.0000   XYYZ      -0.0000   YYYZ       0.0000
      XXZZ    -408.8979   XYZZ      11.4999   YYZZ    -115.8695
      XZZZ       0.0000   YZZZ       0.0000   ZZZZ    -513.0558
 -----------------------------------------------------------------
 Calculating analytic gradient of the SCF energy
 Gradient of SCF Energy
            1           2           3           4           5           6
    1  -0.0000207   0.0000138  -0.0000329   0.0000063   0.0000519   0.0000053
    2   0.0000183   0.0000128   0.0000056   0.0006554  -0.0015245   0.0000099
    3  -0.0000110  -0.0000048   0.0000042   0.0002297  -0.0002275   0.0000086
            7           8           9          10          11          12
    1  -0.0000519   0.0000207  -0.0000063  -0.0000138   0.0000329  -0.0000016
    2   0.0015245  -0.0000183  -0.0006554  -0.0000128  -0.0000056   0.0000170
    3  -0.0002275  -0.0000110   0.0002297  -0.0000048   0.0000042   0.0000019
           13          14          15          16
    1  -0.0000112   0.0000016   0.0000112  -0.0000053
    2  -0.0000272  -0.0000170   0.0000272  -0.0000099
    3  -0.0000012   0.0000019  -0.0000012   0.0000086
 Max gradient component =       1.525E-03
 RMS gradient           =       3.455E-04
 Gradient time:  CPU 1.95 s  wall 1.92 s
 Geometry Optimization Parameters
   NAtoms,    NIC,     NZ,  NCons,   NDum,   NFix, NCnnct, MaxDiis
       16     111       0       1       0       0       0       0

 Cartesian Hessian Update
 Hessian Updated using BFGS Update


** CONSTRAINED OPTIMIZATION IN DELOCALIZED INTERNAL COORDINATES **
   Searching for a Minimum

   Optimization Cycle:   7

                       Coordinates (Angstroms)
     ATOM                X               Y               Z
      1  S         1.6781185181   -0.4571425982    1.0936720839
      2  C         3.1639132680   -0.1018512442    0.2731403728
      3  C         2.9415578043    0.3502010846   -1.0012749734
      4  C         1.5554424737    0.4316136917   -1.3250222593
      5  C         0.7276895530    0.0271058592   -0.2990704595
      6  H         1.1734765879    0.8009228866   -2.2698433789
      7  C        -0.7276895530   -0.0271058592   -0.2990704595
      8  S        -1.6781185181    0.4571425982    1.0936720839
      9  C        -1.5554424737   -0.4316136917   -1.3250222593
     10  C        -3.1639132680    0.1018512442    0.2731403728
     11  C        -2.9415578043   -0.3502010846   -1.0012749734
     12  H        -3.7377418174   -0.6308908972   -1.6814636630
     13  H         4.1083783068   -0.2467794830    0.7796151252
     14  H         3.7377418174    0.6308908972   -1.6814636630
     15  H        -4.1083783068    0.2467794830    0.7796151252
     16  H        -1.1734765879   -0.8009228866   -2.2698433789
   Point Group: c2    Number of degrees of freedom:    22


   Energy is  -1104.839664748

              Constraints and their Current Values
                                        Value     Constraint
   Dihedral:        4   5   7   9       40.000       40.000
 Hessian Updated using BFGS Update

 21 Hessian modes will be used to form the next step
  Hessian Eigenvalues:
     0.012843    0.023488    0.043858    0.045001    0.045072    0.050360
     0.158954    0.159523    0.160394    0.219691    0.222732    0.275334
     0.290854    0.316372    0.357328    0.359766    0.362599    0.387292
     0.443814    0.469368    0.533290

 Minimum Search - Taking Simple RFO Step
 Searching for Lamda that Minimizes Along All modes
 Value Taken    Lamda =   0.00000000
 Step Taken.  Stepsize is  0.001801

                             Maximum     Tolerance    Cnvgd?
         Gradient           0.000036      0.000300     YES
         Displacement       0.001063      0.001200     YES
         Energy change     -0.000000      0.000001     YES

 Final energy is   -1104.83966474835     


 ******************************
 **  OPTIMIZATION CONVERGED  **
 ******************************

                       Coordinates (Angstroms)
     ATOM                X               Y               Z
      1  S         1.6781185181   -0.4571425982    1.0936720839
      2  C         3.1639132680   -0.1018512442    0.2731403728
      3  C         2.9415578043    0.3502010846   -1.0012749734
      4  C         1.5554424737    0.4316136917   -1.3250222593
      5  C         0.7276895530    0.0271058592   -0.2990704595
      6  H         1.1734765879    0.8009228866   -2.2698433789
      7  C        -0.7276895530   -0.0271058592   -0.2990704595
      8  S        -1.6781185181    0.4571425982    1.0936720839
      9  C        -1.5554424737   -0.4316136917   -1.3250222593
     10  C        -3.1639132680    0.1018512442    0.2731403728
     11  C        -2.9415578043   -0.3502010846   -1.0012749734
     12  H        -3.7377418174   -0.6308908972   -1.6814636630
     13  H         4.1083783068   -0.2467794830    0.7796151252
     14  H         3.7377418174    0.6308908972   -1.6814636630
     15  H        -4.1083783068    0.2467794830    0.7796151252
     16  H        -1.1734765879   -0.8009228866   -2.2698433789

Z-matrix Print:
$molecule
0 1
S 
C  1 1.734096
H  2 1.081450 1 119.948549
C  2 1.370375 1 111.629476 3 179.944541 0
H  4 1.084137 2 123.347292 1 -179.801402 0
C  4 1.425748 2 112.814959 1 -0.778837 0
H  6 1.083962 4 124.053239 2 -177.620659 0
C  6 1.378905 4 113.447609 2 0.651186 0
C  8 1.456388 6 127.647441 4 179.377711 0
C  9 1.378905 8 127.647441 6 -39.999981 0
H  10 1.083962 9 122.475669 8 -2.319499 0
C  10 1.425748 9 113.447609 8 179.377711 0
H  12 1.084137 10 123.830021 9 179.668265 0
C  12 1.370375 10 112.814959 9 0.651186 0
H  14 1.081450 12 128.421948 10 179.159827 0
S  14 1.734096 12 111.629476 10 -0.778837 0
$end

 
 --------------------------------------------------------------
             Orbital Energies (a.u.) and Symmetries
 --------------------------------------------------------------
 
 Alpha MOs, Restricted
 -- Occupied --                  
-88.920 -88.920 -10.238 -10.237 -10.225 -10.225 -10.204 -10.204
  1 B     1 A     2 A     2 B     3 B     3 A     4 B     4 A                  
-10.203 -10.203  -7.979  -7.979  -5.943  -5.943  -5.940  -5.940
  5 B     5 A     6 B     6 A     7 B     7 A     8 B     8 A                  
 -5.936  -5.936  -0.900  -0.878  -0.771  -0.747  -0.738  -0.705
  9 A     9 B    10 A    10 B    11 A    12 A    11 B    12 B                  
 -0.603  -0.576  -0.557  -0.534  -0.525  -0.477  -0.420  -0.417
 13 A    14 A    13 B    14 B    15 A    15 B    16 A    17 A                  
 -0.410  -0.403  -0.398  -0.376  -0.374  -0.356  -0.347  -0.273
 16 B    17 B    18 A    18 B    19 A    20 A    19 B    20 B                  
 -0.261  -0.261  -0.218
 21 B    21 A    22 A                                                          
 -- Virtual --                   
 -0.052  -0.015  -0.005  -0.001   0.004   0.016   0.017   0.026
 22 B    23 A    24 A    23 B    25 A    26 A    24 B    27 A                  
  0.029   0.034   0.038   0.044   0.048   0.053   0.056   0.068
 25 B    26 B    28 A    27 B    29 A    28 B    30 A    29 B                  
  0.071   0.077   0.093   0.094   0.100   0.104   0.107   0.112
 31 A    30 B    31 B    32 A    32 B    33 A    34 A    35 A                  
  0.113   0.123   0.125   0.132   0.135   0.137   0.140   0.143
 33 B    34 B    36 A    37 A    35 B    36 B    38 A    39 A                  
  0.149   0.150   0.155   0.163   0.168   0.174   0.176   0.183
 37 B    40 A    38 B    39 B    41 A    40 B    42 A    41 B                  
  0.184   0.190   0.194   0.205   0.211   0.218   0.225   0.229
 43 A    42 B    44 A    43 B    44 B    45 A    45 B    46 A                  
  0.242   0.251   0.263   0.263   0.266   0.272   0.301   0.310
 46 B    47 B    48 B    47 A    48 A    49 A    49 B    50 A                  
  0.312   0.315   0.321   0.326   0.355   0.365   0.372   0.390
 51 A    50 B    51 B    52 A    53 A    52 B    53 B    54 A                  
  0.436   0.451   0.469   0.499   0.526   0.535   0.552   0.563
 54 B    55 A    56 A    55 B    57 A    56 B    57 B    58 B                  
  0.569   0.608   0.617   0.631   0.653   0.660   0.669   0.674
 58 A    59 A    59 B    60 A    61 A    60 B    61 B    62 A                  
  0.698   0.708   0.721   0.726   0.728   0.741   0.745   0.751
 63 A    62 B    64 A    65 A    63 B    64 B    65 B    66 A                  
  0.795   0.795   0.815   0.827   0.848   0.890   0.909   0.947
 66 B    67 A    67 B    68 A    68 B    69 A    69 B    70 A                  
  0.950   0.950   0.954   0.969   0.975   0.992   1.002   1.011
 71 A    70 B    71 B    72 A    72 B    73 A    73 B    74 A                  
  1.016   1.049   1.055   1.075   1.085   1.087   1.108   1.109
 74 B    75 A    75 B    76 A    76 B    77 A    78 A    77 B                  
  1.126   1.177   1.190   1.226   1.237   1.267   1.327   1.343
 78 B    79 A    80 A    79 B    80 B    81 A    81 B    82 A                  
  1.355   1.359   1.366   1.390   1.449   1.471   1.488   1.550
 82 B    83 A    83 B    84 A    84 B    85 B    85 A    86 A                  
  1.575   1.682   1.693   1.744   1.784   1.877   1.885   1.890
 86 B    87 B    87 A    88 B    88 A    89 A    90 A    89 B                  
  1.909   1.925   1.942   1.973   2.016   2.022   2.070   2.070
 90 B    91 A    92 A    91 B    92 B    93 A    93 B    94 A                  
  2.136   2.156   2.180   2.202   2.231   2.240   2.267   2.302
 95 A    94 B    95 B    96 A    96 B    97 A    97 B    98 A                  
  2.366   2.368   2.428   2.451   2.454   2.472   2.497   2.514
 99 A    98 B    99 B   100 A   101 A   100 B   101 B   102 A                  
  2.514   2.539   2.579   2.593   2.594   2.667   2.691   2.716
102 B   103 A   104 A   105 A   103 B   104 B   105 B   106 A                  
  2.779   2.780   2.862   2.906   2.953   3.143   3.202   3.271
106 B   107 A   108 A   107 B   108 B   109 A   109 B   110 A                  
  3.271   3.403   3.426   3.715   3.749   3.951   3.996   4.257
110 B   111 A   111 B   112 A   112 B   113 A   113 B   114 A                  
  4.309   4.321   4.332   4.411   4.539   4.652   4.721
115 A   114 B   115 B   116 A   116 B   117 A   117 B                          
 
 Beta MOs, Restricted
 -- Occupied --                  
-88.920 -88.920 -10.238 -10.237 -10.225 -10.225 -10.204 -10.204
  1 B     1 A     2 A     2 B     3 B     3 A     4 B     4 A                  
-10.203 -10.203  -7.979  -7.979  -5.943  -5.943  -5.940  -5.940
  5 B     5 A     6 B     6 A     7 B     7 A     8 B     8 A                  
 -5.936  -5.936  -0.900  -0.878  -0.771  -0.747  -0.738  -0.705
  9 A     9 B    10 A    10 B    11 A    12 A    11 B    12 B                  
 -0.603  -0.576  -0.557  -0.534  -0.525  -0.477  -0.420  -0.417
 13 A    14 A    13 B    14 B    15 A    15 B    16 A    17 A                  
 -0.410  -0.403  -0.398  -0.376  -0.374  -0.356  -0.347  -0.273
 16 B    17 B    18 A    18 B    19 A    20 A    19 B    20 B                  
 -0.261  -0.261  -0.218
 21 B    21 A    22 A                                                          
 -- Virtual --                   
 -0.052  -0.015  -0.005  -0.001   0.004   0.016   0.017   0.026
 22 B    23 A    24 A    23 B    25 A    26 A    24 B    27 A                  
  0.029   0.034   0.038   0.044   0.048   0.053   0.056   0.068
 25 B    26 B    28 A    27 B    29 A    28 B    30 A    29 B                  
  0.071   0.077   0.093   0.094   0.100   0.104   0.107   0.112
 31 A    30 B    31 B    32 A    32 B    33 A    34 A    35 A                  
  0.113   0.123   0.125   0.132   0.135   0.137   0.140   0.143
 33 B    34 B    36 A    37 A    35 B    36 B    38 A    39 A                  
  0.149   0.150   0.155   0.163   0.168   0.174   0.176   0.183
 37 B    40 A    38 B    39 B    41 A    40 B    42 A    41 B                  
  0.184   0.190   0.194   0.205   0.211   0.218   0.225   0.229
 43 A    42 B    44 A    43 B    44 B    45 A    45 B    46 A                  
  0.242   0.251   0.263   0.263   0.266   0.272   0.301   0.310
 46 B    47 B    48 B    47 A    48 A    49 A    49 B    50 A                  
  0.312   0.315   0.321   0.326   0.355   0.365   0.372   0.390
 51 A    50 B    51 B    52 A    53 A    52 B    53 B    54 A                  
  0.436   0.451   0.469   0.499   0.526   0.535   0.552   0.563
 54 B    55 A    56 A    55 B    57 A    56 B    57 B    58 B                  
  0.569   0.608   0.617   0.631   0.653   0.660   0.669   0.674
 58 A    59 A    59 B    60 A    61 A    60 B    61 B    62 A                  
  0.698   0.708   0.721   0.726   0.728   0.741   0.745   0.751
 63 A    62 B    64 A    65 A    63 B    64 B    65 B    66 A                  
  0.795   0.795   0.815   0.827   0.848   0.890   0.909   0.947
 66 B    67 A    67 B    68 A    68 B    69 A    69 B    70 A                  
  0.950   0.950   0.954   0.969   0.975   0.992   1.002   1.011
 71 A    70 B    71 B    72 A    72 B    73 A    73 B    74 A                  
  1.016   1.049   1.055   1.075   1.085   1.087   1.108   1.109
 74 B    75 A    75 B    76 A    76 B    77 A    78 A    77 B                  
  1.126   1.177   1.190   1.226   1.237   1.267   1.327   1.343
 78 B    79 A    80 A    79 B    80 B    81 A    81 B    82 A                  
  1.355   1.359   1.366   1.390   1.449   1.471   1.488   1.550
 82 B    83 A    83 B    84 A    84 B    85 B    85 A    86 A                  
  1.575   1.682   1.693   1.744   1.784   1.877   1.885   1.890
 86 B    87 B    87 A    88 B    88 A    89 A    90 A    89 B                  
  1.909   1.925   1.942   1.973   2.016   2.022   2.070   2.070
 90 B    91 A    92 A    91 B    92 B    93 A    93 B    94 A                  
  2.136   2.156   2.180   2.202   2.231   2.240   2.267   2.302
 95 A    94 B    95 B    96 A    96 B    97 A    97 B    98 A                  
  2.366   2.368   2.428   2.451   2.454   2.472   2.497   2.514
 99 A    98 B    99 B   100 A   101 A   100 B   101 B   102 A                  
  2.514   2.539   2.579   2.593   2.594   2.667   2.691   2.716
102 B   103 A   104 A   105 A   103 B   104 B   105 B   106 A                  
  2.779   2.780   2.862   2.906   2.953   3.143   3.202   3.271
106 B   107 A   108 A   107 B   108 B   109 A   109 B   110 A                  
  3.271   3.403   3.426   3.715   3.749   3.951   3.996   4.257
110 B   111 A   111 B   112 A   112 B   113 A   113 B   114 A                  
  4.309   4.321   4.332   4.411   4.539   4.652   4.721
115 A   114 B   115 B   116 A   116 B   117 A   117 B                          
 --------------------------------------------------------------
 
          Ground-State Mulliken Net Atomic Charges

     Atom                 Charge (a.u.)
  ----------------------------------------
      1 S                    -0.019206
      2 C                    -0.062096
      3 C                    -0.391758
      4 C                     0.265307
      5 C                    -0.237188
      6 H                     0.141368
      7 C                    -0.237189
      8 S                    -0.019206
      9 C                     0.265307
     10 C                    -0.062096
     11 C                    -0.391758
     12 H                     0.116433
     13 H                     0.187140
     14 H                     0.116433
     15 H                     0.187140
     16 H                     0.141368
  ----------------------------------------
  Sum of atomic charges =    -0.000000

 -----------------------------------------------------------------
                    Cartesian Multipole Moments
 -----------------------------------------------------------------
    Charge (ESU x 10^10)
                -0.0000
    Dipole Moment (Debye)
         X       0.0000      Y      -0.0000      Z      -0.9676
       Tot       0.9676
    Quadrupole Moments (Debye-Ang)
        XX     -60.9576     XY       0.7553     YY     -77.5069
        XZ       0.0000     YZ       0.0000     ZZ     -68.9761
    Octopole Moments (Debye-Ang^2)
       XXX       0.0000    XXY      -0.0000    XYY       0.0000
       YYY      -0.0000    XXZ       5.2820    XYZ      -9.5164
       YYZ       0.9619    XZZ       0.0000    YZZ      -0.0000
       ZZZ      -6.7353
    Hexadecapole Moments (Debye-Ang^3)
      XXXX   -1880.7696   XXXY       6.5863   XXYY    -421.7326
      XYYY       2.7721   YYYY    -168.5069   XXXZ       0.0000
      XXYZ       0.0000   XYYZ      -0.0000   YYYZ       0.0000
      XXZZ    -408.8979   XYZZ      11.4999   YYZZ    -115.8695
      XZZZ       0.0000   YZZZ       0.0000   ZZZZ    -513.0558
 -----------------------------------------------------------------
Archival summary:
1\1\nid01044\OPT\ProcedureUnspecified\BasisUnspecified\286\FriSep218:16:292016FriSep218:16:292016\0\\#,OPT,ProcedureUnspecified,BasisUnspecified,\\0,1\S\C,1,1.7341\H,2,1.08145,1,119.949\C,2,1.37038,1,111.629,3,179.945,0\H,4,1.08414,2,123.347,1,-179.801,0\C,4,1.42575,2,112.815,1,-0.778837,0\H,6,1.08396,4,124.053,2,-177.621,0\C,6,1.3789,4,113.448,2,0.651186,0\C,8,1.45639,6,127.647,4,179.378,0\C,9,1.3789,8,127.647,6,-40,0\H,10,1.08396,9,122.476,8,-2.3195,0\C,10,1.42575,9,113.448,8,179.378,0\H,12,1.08414,10,123.83,9,179.668,0\C,12,1.37038,10,112.815,9,0.651186,0\H,14,1.08145,12,128.422,10,179.16,0\S,14,1.7341,12,111.629,10,-0.778837,0\\\@

 Total job time:  73.04s(wall), 82.66s(cpu) 
 Fri Sep  2 18:16:29 2016

        *************************************************************
        *                                                           *
        *  Thank you very much for using Q-Chem.  Have a nice day.  *
        *                                                           *
        *************************************************************


0 sent ACK to 0 
now end server 0 ... 
