srun -N 1 --ntasks-per-node 16 --nodelist nid01043 /global/project/projectdirs/jcesr/qchem/qc44/cnl_qc441/dist/exe/qcprog.cori.exe .pt_dft_-50.0.in.51522.qcin.1 /dev/shm/eg_qchem/qchem51522/
Process 0 of 16 is on nid01043 - thread support 0
Process 1 of 16 is on nid01043 - thread support 0
Process 2 of 16 is on nid01043 - thread support 0
Process 3 of 16 is on nid01043 - thread support 0
Process 4 of 16 is on nid01043 - thread support 0
Process 5 of 16 is on nid01043 - thread support 0
Process 6 of 16 is on nid01043 - thread support 0
Process 15 of 16 is on nid01043 - thread support 0
initial socket setup ...start
initial socket setup ...done 
now start server 0 ... 
nid01043 10.128.4
Q-Chem Developer Version! Running on 10.128.4.*
                  Welcome to Q-Chem
     A Quantum Leap Into The Future Of Chemistry


 Q-Chem 4.4, Q-Chem, Inc., Pleasanton, CA (2016)

 Y. Shao,  Z. Gan,  E. Epifanovsky,  A. T. B. Gilbert,  M. Wormit,  
 J. Kussmann,  A. W. Lange,  A. Behn,  J. Deng,  X. Feng,  D. Ghosh,  
 M. Goldey,  P. R. Horn,  L. D. Jacobson,  I. Kaliman,  F.Rob,  
 R. Z. Khaliullin,  T. Kus,  A. Landau,  J. Liu,  E. I. Proynov,  Y. M. Rhee,  
 R. M. Richard,  M. A. Rohrdanz,  R. P. Steele,  E. J. Sundstrom,  
 H. L. Woodcock III,  P. M. Zimmerman,  D. Zuev,  B. Albrecht,  E. Alguire,  
 B. Austin,  S. A. Baeppler,  G. J. O. Beran,  Y. A. Bernard,  E. Berquist,  
 K. Brandhorst,  K. B. Bravaya,  S. T. Brown,  D. Casanova,  C.-M. Chang,  
 Y. Chen,  S. H. Chien,  K. D. Closser,  M. P. Coons,  D. L. Crittenden,  
 S. Dasgupta,  M. Diedenhofen,  R. A. DiStasio Jr.,  H. Do,  A. D. Dutoi,  
 R. G. Edgar,  P.-T. Fang,  S. Fatehi,  Q. Feng,  L. Fusti-Molnar,  
 A. Ghysels,  A. Golubeva-Zadorozhnaya,  J. Gomes,  A. Gunina,  
 M. W. D. Hanson-Heine,  P. H. P. Harbach,  A. W. Hauser,  E. G. Hohenstein,  
 Z. C. Holden,  K. Hui,  T.-C. Jagau,  H. Ji,  B. Kaduk,  K. Khistyaev,  
 Jaehoon Kim,  Jihan Kim,  R. A. King,  P. Klunzinger,  D. Kosenkov,  
 T. Kowalczyk,  C. M. Krauter,  A. Kunitsa,  K. U. Lao,  A. Laurent,  
 K. V. Lawler,  D. Lefrancois,  S. Lehtola,  S. V. Levchenko,  C. Y. Lin,  
 Y.-S. Lin,  F. Liu,  E. Livshits,  R. C. Lochan,  A. Luenser,  P. Manohar,  
 S. F. Manzer,  S.-P. Mao,  Y. Mao,  N. Mardirossian,  A. V. Marenich,  
 L. A. Martinez-Martinez,  S. A. Maurer,  N. J. Mayhall,  J.-M. Mewes,  
 A. F. Morrison,  K. Nanda,  C. M. Oana,  R. Olivares-Amaya,  D. P. O'Neill,  
 J. A. Parkhill,  T. M. Perrine,  R. Peverati,  P. A. Pieniazek,  F. Plasser,  
 A. Prociuk,  D. R. Rehn,  E. Rosta,  N. J. Russ,  N. Sergueev,  
 S. M. Sharada,  S. Sharma,  D. W. Small,  A. Sodt,  T. Stauch,  T. Stein,  
 D. Stuck,  Y.-C. Su,  A. J. W. Thom,  T. Tsuchimochi,  L. Vogt,  O. Vydrov,  
 T. Wang,  M. A. Watson,  J. Wenzel,  A. White,  C. F. Williams,  
 V. Vanovschi,  S. Yeganeh,  S. R. Yost,  Z.-Q. You,  I. Y. Zhang,  X. Zhang,  
 Y. Zhao,  B. R. Brooks,  G. K. L. Chan,  D. M. Chipman,  C. J. Cramer,  
 W. A. Goddard III,  M. S. Gordon,  W. J. Hehre,  A. Klamt,  
 H. F. Schaefer III,  M. W. Schmidt,  C. D. Sherrill,  D. G. Truhlar,  
 A. Warshel,  X. Xu,  A. Aspuru-Guzik,  R. Baer,  A. T. Bell,  N. A. Besley,  
 J.-D. Chai,  A. Dreuw,  B. D. Dunietz,  T. R. Furlani,  S. R. Gwaltney,  
 C.-P. Hsu,  Y. Jung,  J. Kong,  D. S. Lambrecht,  W. Liang,  C. Ochsenfeld,  
 V. A. Rassolov,  L. V. Slipchenko,  J. E. Subotnik,  T. Van Voorhis,  
 J. M. Herbert,  A. I. Krylov,  P. M. W. Gill,  M. Head-Gordon

 Contributors to earlier versions of Q-Chem not listed above: 
 R. D. Adamson,  J. Baker,  E. F. C. Byrd,  A. K. Chakraborty,  C.-L. Cheng,  
 H. Dachsel,  R. J. Doerksen,  G. Hawkins,  A. Heyden,  S. Hirata,  
 G. Kedziora,  F. J. Keil,  C. Kelley,  P. P. Korambath,  W. Kurlancheek,  
 A. M. Lee,  M. S. Lee,  D. Liotard,  I. Lotan,  P. E. Maslen,  N. Nair,  
 D. Neuhauser,  R. Olson,  B. Peters,  J. Ritchie,  N. E. Schultz,  
 N. Shenvi,  A. C. Simmonett,  K. S. Thanthiriwatte,  Q. Wu,  W. Zhang

 Please cite Q-Chem as follows:
 Y. Shao et al., Mol. Phys. 113, 184-215 (2015)
 DOI: 10.1080/00268976.2014.952696

 Q-Chem 4.4.1 for Intel X86 EM64T Linux

 Parts of Q-Chem use Armadillo 5.200.1 (Boston Tea Smuggler).
 http://arma.sourceforge.net/

 Q-Chem begins on Fri Sep  2 18:21:48 2016  

Host: nid01043
0

     Scratch files written to /dev/shm/eg_qchem/qchem51522.0//
 Parallel job on  16  processors

Checking the input file for inconsistencies... 	...done.

--------------------------------------------------------------
User input:
--------------------------------------------------------------
$comment
<SCF Fix Strategy>{
    "current_method_id": 0, 
    "methods": [
        "increase_iter", 
        "rca_diis", 
        "gwh", 
        "gdm", 
        "rca", 
        "core+rca", 
        "fon"
    ], 
    "version": 2.0
}</SCF Fix Strategy>
$end


$molecule
 0  1
 S           1.82267924       -1.19997629        0.28714109
 C           3.20006180       -0.17260711        0.06528466
 C           2.82980603        1.10216298       -0.25610036
 C           1.41909100        1.26345446       -0.34254814
 C           0.71738150        0.10901545       -0.08456145
 H           0.93627498        2.19419272       -0.61095402
 C          -0.71741859       -0.10899254       -0.08455524
 S          -1.42098918       -1.44394535       -0.97685255
 C          -1.70445825        0.61445327        0.54318796
 C          -3.01999224       -1.01273173       -0.46780001
 C          -3.01254331        0.10029122        0.32374341
 H          -3.90859449        0.53522425        0.74640094
 H           4.19429620       -0.57452886        0.18632814
 H           3.53860725        1.89960515       -0.43610218
 H          -3.86279185       -1.60746932       -0.78508643
 H          -1.49387306        1.47538715        1.16437512
$end


$rem
         jobtype = opt
        exchange = b3lyp
           basis = 6-31++g**
  max_scf_cycles = 200
      mem_static = 100
       mem_total = 1500
   scf_algorithm = diis
       scf_guess = sad
$end


$opt
CONSTRAINT
tors 4 5 7 9 -50.0
ENDCONSTRAINT
$end

--------------------------------------------------------------
 Atom   8: ( -1.6550285235, -0.5527448570,  1.0385948522)
         ->( -1.6550286208, -0.5527447833,  1.0385949402)
 Atom  10: ( -3.1480792917, -0.0967571795,  0.2870863015)
         ->( -3.1480793055, -0.0967572168,  0.2870861803)
 Atom  11: ( -2.9422852895,  0.4595764569, -0.9431812602)
         ->( -2.9422852178,  0.4595761834, -0.9431814287)
 Atom   9: ( -1.5652656998,  0.5389954256, -1.2911966696)
         ->( -1.5652655856,  0.5389956559, -1.2911965665)
 Atom   7: ( -0.7245126024,  0.0403265157, -0.3236501834)
         ->( -0.7245125491,  0.0403263966, -0.3236501419)
 Atom  16: ( -1.2030824649,  0.9726849321, -2.2143236772)
         ->( -1.2030822741,  0.9726854048, -2.2143234185)
 Atom  14: (  3.7445068497, -0.8116854929, -1.5781407397)
         ->(  3.7445069639, -0.8116859142, -1.5781404405)
 Atom  15: ( -4.0816379416, -0.2684237667,  0.8005972420)
         ->( -4.0816380427, -0.2684238004,  0.8005969665)
 ----------------------------------------------------------------
             Standard Nuclear Orientation (Angstroms)
    I     Atom           X                Y                Z
 ----------------------------------------------------------------
    1      S       1.6550286208     0.5527447833     1.0385949402
    2      C       3.1480793055     0.0967572168     0.2870861803
    3      C       2.9422852178    -0.4595761834    -0.9431814287
    4      C       1.5652655856    -0.5389956559    -1.2911965665
    5      C       0.7245125491    -0.0403263966    -0.3236501419
    6      H       1.2030822741    -0.9726854048    -2.2143234185
    7      C      -0.7245125491     0.0403263966    -0.3236501419
    8      S      -1.6550286208    -0.5527447833     1.0385949402
    9      C      -1.5652655856     0.5389956559    -1.2911965665
   10      C      -3.1480793055    -0.0967572168     0.2870861803
   11      C      -2.9422852178     0.4595761834    -0.9431814287
   12      H      -3.7445069639     0.8116859142    -1.5781404405
   13      H       4.0816380427     0.2684238004     0.8005969665
   14      H       3.7445069639    -0.8116859142    -1.5781404405
   15      H      -4.0816380427    -0.2684238004     0.8005969665
   16      H      -1.2030822741     0.9726854048    -2.2143234185
 ----------------------------------------------------------------
 Molecular Point Group                 C2    NOp =  2
 Largest Abelian Subgroup              C2    NOp =  2
 Nuclear Repulsion Energy =   632.0556360294 hartrees
 There are       43 alpha and       43 beta electrons
 Requested basis set is 6-31++G(d,p)
 There are 76 shells and 234 basis functions

 Total QAlloc Memory Limit   1500 MB
 Mega-Array Size        98 MB
 MEM_STATIC part       100 MB
 A cutoff of  1.0D-11 yielded   2487 shell pairs
 There are     24523 function pairs
 
 -------------------------------------------------------
 OpenMP Integral Computing Module                       
 Release: version 1.0, May 2013, Q-Chem Inc. Pittsburgh 
 -------------------------------------------------------
 Integral Job Info:
 Integral job number is                      11
 Integral operator is                         1
 short-range coefficients                     0
 long-range coefficients              100000000
 Omega coefficients                           0
 if combine SR and LR in K                    0
 Integral screening is                        0
 Integral computing path is                   2
 max size of driver memory is            800000
 size of driver memory is                593474
 size of scratch memory is             15166112
 max col of scratch BK array               1296
 max len of scratch array in speh3          155
 max len of scratch index in speh4           18
 max int batch size is                      520
 min int batch size is                       52
 fixed nKL is                                52
 max L of basis functions is                  2
 order of int derivative is                   0
 number of shells is                         76
 number of basis is                         234
 number of cartesian basis is               234
 number of contracted shell pairs          2487
 number of primitive shell pairs           8047
 maxK2 (contraction) of shell pair           36
 max number of K2 of shell pair               1
 max number of CS2 of shell pair            258
 max number of PS2 of shell pair           1500
 mem total for path MDJ                   51834
 -------------------------------------------------------
 Smallest overlap matrix eigenvalue = 1.10E-06

 Q-Chem warning in module /project/projectdirs/jcesr/qchem/qc44/cnl_qc441/compile/cori/qc_src/stvman/mkSTV.C, line 257:

 Overlap eigenvalue is smaller than square root of threshold


 Scale SEOQF with 1.000000e-01/1.000000e-01/1.000000e-01

 Standard Electronic Orientation quadrupole field applied
 Nucleus-field energy     =     0.0000000071 hartrees
 Guess from superposition of atomic densities
 Warning:  Energy on first SCF cycle will be non-variational
 A restricted hybrid HF-DFT SCF calculation will be
 performed using Pulay DIIS extrapolation
 Exchange:     0.2000 Hartree-Fock + 0.0800 Slater + 0.7200 B88
 Correlation:  0.1900 VWN1RPA + 0.8100 LYP
 Using SG-1 standard quadrature grid
 SCF converges when DIIS error is below 1.0E-08
 ---------------------------------------
  Cycle       Energy         DIIS Error
 ---------------------------------------
    1   -1107.2127189152      4.43E-02
    2   -1032.7317668330      3.64E-01
    3   -1057.0221815851      1.43E-01
    4   -1018.3483001917      4.09E-01
    5   -1098.0884213204      8.01E-02
    6    -796.9006486353      2.36E+00
    7   -1026.3133689716      5.86E-01
    8    -995.8185689901      7.86E-01
    9    -975.3414832046      9.32E-01
   10    -977.9218369223      9.15E-01
   11   -1003.5587467624      7.25E-01
   12   -1348.6737705309      1.37E+00
   13   -3649.2769070623      1.61E+01
   14   -3381.7143839390      1.31E+01
   15   -1348.6708328609      1.43E+00
   16   -1356.2270318777      1.42E+00
   17   -1083.3335092883      6.66E-02
   18   -1078.5945323675      8.00E-02
   19   -1101.0459768951      3.83E-02
   20   -1103.0760362392      1.15E-02
   21   -1099.6281747218      1.83E-02
   22   -1103.6365151848      3.99E-03
   23   -1106.4859005386      2.00E-02
   24   -1107.8112150791      2.21E-02
   25   -1107.7431577567      2.16E-02
   26   -1107.4637088373      1.78E-02
   27   -1106.0427601863      2.53E-03
   28   -1105.5410757505      1.43E-03
   29   -1105.6981710065      1.51E-03
   30   -1105.8578538161      1.07E-03
   31   -1105.9404494425      1.22E-03
   32   -1105.9675948351      1.19E-03
   33   -1105.8676408832      1.20E-03
   34   -1106.2823063315      3.84E-02
   35   -1106.9314041287      6.70E-02
   36   -1106.8507614281      6.86E-02
   37   -1106.9236926659      6.44E-02
   38   -1107.2288614140      6.00E-02
   39   -1107.0810653139      5.91E-02
   40   -1106.9637080375      5.59E-02
   41   -1106.5374077813      3.50E-02
   42   -1106.2470528127      2.41E-02
   43   -1105.8321236753      4.75E-02
   44   -1105.8467431232      7.19E-03
   45   -1107.8587468913      2.96E-02
   46   -1108.0992896788      2.93E-02
   47   -1107.5569055617      1.88E-02
   48   -1107.2663801803      2.41E-02
   49   -1107.4336601729      2.22E-02
   50   -1106.4369743080      1.28E-02
   51   -1106.3406617231      1.94E-02
   52   -1105.1095486008      2.39E-02
   53   -1105.8049646877      2.29E-02
   54   -1105.7274579165      1.98E-02
   55   -1105.8019407344      1.21E-02
   56   -1106.9211410010      2.75E-03
   57   -1107.2188408412      1.04E-02
   58   -1107.2913137407      3.37E-03
   59   -1106.4168473592      1.12E-02
   60   -1107.8233141957      7.04E-03
   61   -1107.7341560366      7.70E-03
   62   -1108.5525027013      5.41E-03
   63   -1107.3704641279      3.59E-03
   64   -1105.4089188222      3.34E-03
   65   -1105.4248724756      1.38E-02
   66   -1105.7225702552      1.42E-02
   67   -1107.0088365795      1.99E-02
   68   -1107.0999380180      1.72E-02
   69   -1107.2420619975      2.84E-02
   70   -1106.3104578398      2.54E-02
   71   -1106.5298299753      2.70E-02
   72   -1105.2538270001      3.30E-03
   73   -1105.3528202451      8.55E-03
   74   -1105.2104817696      7.26E-03
   75   -1104.8278773909      3.14E-03
   76   -1104.9504738561      3.57E-03
   77   -1104.7110357363      2.98E-03
   78   -1104.3536947376      3.89E-03
   79   -1105.0656081944      6.92E-03
   80   -1104.1192133420      1.37E-02
   81   -1104.9412130083      1.13E-02
   82   -1107.1956302983      1.80E-02
   83   -1107.2963826298      1.87E-02
   84   -1107.1857288019      2.43E-02
   85   -1106.4194902568      1.22E-02
   86   -1106.0067437963      5.26E-03
   87   -1107.0436906822      1.35E-02
   88   -1106.7110537240      1.26E-02
   89   -1106.4087172230      1.34E-02
   90   -1106.8054684639      2.42E-02
   91   -1106.0385574714      1.14E-02
   92   -1107.1359849984      3.14E-02
   93   -1095.9716445706      2.04E-01
   94   -1096.1420413559      2.09E-01
   95   -1095.6686631837      2.19E-01
   96   -1104.5805314966      5.28E-03
   97   -1107.1619881040      1.33E-02
   98   -1106.7414660992      9.81E-03
   99   -1105.3861039353      7.12E-03
  100   -1106.7283737342      2.78E-02
  101   -1106.2557921967      6.06E-03
  102   -1106.9906090637      5.83E-03
  103   -1106.7529959894      4.50E-03
  104   -1106.7668417216      6.38E-03
  105   -1106.8482815612      1.62E-02
  106   -1107.1121275616      2.61E-02
  107   -1106.3886403678      1.43E-02
  108   -1106.9303556070      2.96E-02
  109   -1106.8851019887      2.94E-02
  110   -1106.9143583299      2.81E-02
  111   -1110.0195739201      1.05E-01
  112   -1107.2228174652      3.64E-02
  113   -1105.8457311350      4.58E-03
  114   -1106.6720211228      2.94E-03
  115   -1106.6025769026      4.08E-03
  116   -1107.1424623768      3.85E-03
  117   -1106.9698139396      4.26E-03
  118   -1104.6977983658      1.32E-03
  119   -1104.4283872049      3.68E-03
  120   -1105.0256105851      1.75E-02
  121   -1104.8149920845      9.82E-03
  122   -1113.6124456672      2.23E-01
  123   -1101.8265745800      5.45E-02
  124   -1104.6082514439      4.95E-03
  125   -1104.6056903407      4.98E-03
  126   -1104.6089957423      4.95E-03
  127   -1104.6161510650      4.87E-03
  128   -1104.6513448265      4.40E-03
  129   -1104.6868362815      3.95E-03
  130   -1104.6880824979      3.94E-03
  131   -1104.7025585366      3.76E-03
  132   -1104.7413338605      3.18E-03
  133   -1104.6969305064      4.22E-03
  134   -1104.8311615202      1.01E-03
  135   -1104.8384422838      2.51E-04
  136   -1104.8387964143      1.24E-04
  137   -1104.8389180037      2.71E-05
  138   -1104.8389223143      1.40E-05
  139   -1104.8389233598      1.55E-06
  140   -1104.8389191172      6.04E-07
  141   -1104.8389184924      2.08E-07
  142   -1104.8389187760      7.82E-08
  143   -1104.8389201721      6.27E-08
  144   -1104.8389200168      4.87E-08
  145   -1104.8389194780      4.74E-08
  146   -1104.8389196370      5.73E-08
  147   -1104.8389202330      1.21E-07
  148   -1104.8389192526      4.17E-08
  149   -1104.8389192668      3.09E-08
  150   -1104.8389194674      3.96E-08
  151   -1104.8389197420      4.96E-08
  152   -1104.8389195579      3.60E-08
  153   -1104.8389194536      3.00E-08
  154   -1104.8389194055      2.27E-08
  155   -1104.8389194543      1.79E-08
  156   -1104.8389193776      6.01E-09 Convergence criterion met
 ---------------------------------------
 SCF time:  CPU 70.48 s  wall 59.07 s
 SCF   energy in the final basis set = -1104.8389193776
 Total energy in the final basis set = -1104.8389193776
 
 --------------------------------------------------------------
             Orbital Energies (a.u.) and Symmetries
 --------------------------------------------------------------
 
 Alpha MOs, Restricted
 -- Occupied --                  
-88.919 -88.919 -10.236 -10.236 -10.223 -10.223 -10.203 -10.203
  1 B     1 A     2 A     2 B     3 B     3 A     4 A     4 B                  
-10.202 -10.202  -7.978  -7.978  -5.942  -5.942  -5.939  -5.939
  5 B     5 A     6 B     6 A     7 B     7 A     8 B     8 A                  
 -5.935  -5.935  -0.901  -0.879  -0.771  -0.747  -0.739  -0.706
  9 A     9 B    10 A    10 B    11 A    12 A    11 B    12 B                  
 -0.603  -0.575  -0.559  -0.535  -0.525  -0.477  -0.420  -0.417
 13 A    14 A    13 B    14 B    15 A    15 B    16 A    17 A                  
 -0.411  -0.405  -0.397  -0.375  -0.374  -0.354  -0.347  -0.268
 16 B    17 B    18 A    18 B    19 A    20 A    19 B    20 B                  
 -0.262  -0.260  -0.222
 21 A    21 B    22 A                                                          
 -- Virtual --                   
 -0.048  -0.017  -0.006  -0.001   0.005   0.016   0.017   0.026
 22 B    23 A    24 A    23 B    25 A    24 B    26 A    27 A                  
  0.030   0.034   0.038   0.043   0.047   0.050   0.058   0.067
 25 B    26 B    28 A    27 B    29 A    28 B    30 A    29 B                  
  0.071   0.075   0.092   0.096   0.100   0.103   0.107   0.114
 31 A    30 B    32 A    31 B    32 B    33 A    34 A    35 A                  
  0.115   0.122   0.124   0.132   0.134   0.135   0.140   0.145
 33 B    34 B    36 A    37 A    35 B    36 B    38 A    39 A                  
  0.148   0.153   0.154   0.161   0.169   0.173   0.175   0.184
 37 B    40 A    38 B    39 B    41 A    42 A    40 B    43 A                  
  0.185   0.190   0.197   0.201   0.212   0.220   0.227   0.232
 41 B    42 B    44 A    43 B    44 B    45 A    45 B    46 A                  
  0.240   0.245   0.261   0.263   0.271   0.275   0.301   0.310
 46 B    47 B    48 B    47 A    48 A    49 A    49 B    50 A                  
  0.314   0.316   0.321   0.331   0.355   0.366   0.373   0.396
 50 B    51 A    51 B    52 A    53 A    52 B    53 B    54 A                  
  0.436   0.457   0.471   0.503   0.525   0.531   0.551   0.569
 54 B    55 A    56 A    55 B    57 A    56 B    57 B    58 B                  
  0.570   0.604   0.613   0.635   0.655   0.658   0.671   0.675
 58 A    59 A    59 B    60 A    61 A    60 B    61 B    62 A                  
  0.700   0.707   0.722   0.727   0.741   0.748   0.751   0.755
 63 A    62 B    64 A    63 B    64 B    65 A    65 B    66 A                  
  0.791   0.799   0.813   0.827   0.846   0.895   0.908   0.947
 66 B    67 A    67 B    68 A    68 B    69 A    69 B    70 A                  
  0.954   0.954   0.957   0.969   0.970   0.993   0.997   1.015
 71 A    70 B    71 B    72 A    72 B    73 A    73 B    74 A                  
  1.016   1.044   1.055   1.064   1.083   1.092   1.101   1.112
 74 B    75 B    75 A    76 B    76 A    77 A    77 B    78 A                  
  1.128   1.180   1.194   1.225   1.235   1.280   1.323   1.347
 78 B    79 A    80 A    79 B    80 B    81 A    81 B    82 A                  
  1.355   1.363   1.366   1.388   1.451   1.469   1.497   1.547
 82 B    83 A    83 B    84 A    84 B    85 B    85 A    86 A                  
  1.578   1.690   1.694   1.768   1.792   1.876   1.892   1.893
 86 B    87 B    87 A    88 B    88 A    89 A    90 A    89 B                  
  1.913   1.931   1.933   1.969   2.021   2.027   2.072   2.075
 90 B    91 A    92 A    91 B    92 B    93 A    93 B    94 A                  
  2.139   2.163   2.183   2.215   2.228   2.246   2.258   2.314
 95 A    94 B    95 B    96 A    96 B    97 A    97 B    98 A                  
  2.367   2.370   2.434   2.454   2.459   2.475   2.498   2.516
 99 A    98 B    99 B   100 A   101 A   100 B   101 B   102 A                  
  2.516   2.544   2.587   2.596   2.611   2.658   2.699   2.719
102 B   103 A   104 A   103 B   105 A   104 B   105 B   106 A                  
  2.773   2.795   2.871   2.905   2.959   3.154   3.206   3.277
106 B   107 A   108 A   107 B   108 B   109 A   109 B   110 A                  
  3.277   3.410   3.433   3.725   3.754   3.956   3.992   4.265
110 B   111 A   111 B   112 A   112 B   113 A   113 B   114 A                  
  4.315   4.322   4.333   4.420   4.541   4.659   4.725
115 A   114 B   115 B   116 A   116 B   117 A   117 B                          
 
 Beta MOs, Restricted
 -- Occupied --                  
-88.919 -88.919 -10.236 -10.236 -10.223 -10.223 -10.203 -10.203
  1 B     1 A     2 A     2 B     3 B     3 A     4 A     4 B                  
-10.202 -10.202  -7.978  -7.978  -5.942  -5.942  -5.939  -5.939
  5 B     5 A     6 B     6 A     7 B     7 A     8 B     8 A                  
 -5.935  -5.935  -0.901  -0.879  -0.771  -0.747  -0.739  -0.706
  9 A     9 B    10 A    10 B    11 A    12 A    11 B    12 B                  
 -0.603  -0.575  -0.559  -0.535  -0.525  -0.477  -0.420  -0.417
 13 A    14 A    13 B    14 B    15 A    15 B    16 A    17 A                  
 -0.411  -0.405  -0.397  -0.375  -0.374  -0.354  -0.347  -0.268
 16 B    17 B    18 A    18 B    19 A    20 A    19 B    20 B                  
 -0.262  -0.260  -0.222
 21 A    21 B    22 A                                                          
 -- Virtual --                   
 -0.048  -0.017  -0.006  -0.001   0.005   0.016   0.017   0.026
 22 B    23 A    24 A    23 B    25 A    24 B    26 A    27 A                  
  0.030   0.034   0.038   0.043   0.047   0.050   0.058   0.067
 25 B    26 B    28 A    27 B    29 A    28 B    30 A    29 B                  
  0.071   0.075   0.092   0.096   0.100   0.103   0.107   0.114
 31 A    30 B    32 A    31 B    32 B    33 A    34 A    35 A                  
  0.115   0.122   0.124   0.132   0.134   0.135   0.140   0.145
 33 B    34 B    36 A    37 A    35 B    36 B    38 A    39 A                  
  0.148   0.153   0.154   0.161   0.169   0.173   0.175   0.184
 37 B    40 A    38 B    39 B    41 A    42 A    40 B    43 A                  
  0.185   0.190   0.197   0.201   0.212   0.220   0.227   0.232
 41 B    42 B    44 A    43 B    44 B    45 A    45 B    46 A                  
  0.240   0.245   0.261   0.263   0.271   0.275   0.301   0.310
 46 B    47 B    48 B    47 A    48 A    49 A    49 B    50 A                  
  0.314   0.316   0.321   0.331   0.355   0.366   0.373   0.396
 50 B    51 A    51 B    52 A    53 A    52 B    53 B    54 A                  
  0.436   0.457   0.471   0.503   0.525   0.531   0.551   0.569
 54 B    55 A    56 A    55 B    57 A    56 B    57 B    58 B                  
  0.570   0.604   0.613   0.635   0.655   0.658   0.671   0.675
 58 A    59 A    59 B    60 A    61 A    60 B    61 B    62 A                  
  0.700   0.707   0.722   0.727   0.741   0.748   0.751   0.755
 63 A    62 B    64 A    63 B    64 B    65 A    65 B    66 A                  
  0.791   0.799   0.813   0.827   0.846   0.895   0.908   0.947
 66 B    67 A    67 B    68 A    68 B    69 A    69 B    70 A                  
  0.954   0.954   0.957   0.969   0.970   0.993   0.997   1.015
 71 A    70 B    71 B    72 A    72 B    73 A    73 B    74 A                  
  1.016   1.044   1.055   1.064   1.083   1.092   1.101   1.112
 74 B    75 B    75 A    76 B    76 A    77 A    77 B    78 A                  
  1.128   1.180   1.194   1.225   1.235   1.280   1.323   1.347
 78 B    79 A    80 A    79 B    80 B    81 A    81 B    82 A                  
  1.355   1.363   1.366   1.388   1.451   1.469   1.497   1.547
 82 B    83 A    83 B    84 A    84 B    85 B    85 A    86 A                  
  1.578   1.690   1.694   1.768   1.792   1.876   1.892   1.893
 86 B    87 B    87 A    88 B    88 A    89 A    90 A    89 B                  
  1.913   1.931   1.933   1.969   2.021   2.027   2.072   2.075
 90 B    91 A    92 A    91 B    92 B    93 A    93 B    94 A                  
  2.139   2.163   2.183   2.215   2.228   2.246   2.258   2.314
 95 A    94 B    95 B    96 A    96 B    97 A    97 B    98 A                  
  2.367   2.370   2.434   2.454   2.459   2.475   2.498   2.516
 99 A    98 B    99 B   100 A   101 A   100 B   101 B   102 A                  
  2.516   2.544   2.587   2.596   2.611   2.658   2.699   2.719
102 B   103 A   104 A   103 B   105 A   104 B   105 B   106 A                  
  2.773   2.795   2.871   2.905   2.959   3.154   3.206   3.277
106 B   107 A   108 A   107 B   108 B   109 A   109 B   110 A                  
  3.277   3.410   3.433   3.725   3.754   3.956   3.992   4.265
110 B   111 A   111 B   112 A   112 B   113 A   113 B   114 A                  
  4.315   4.322   4.333   4.420   4.541   4.659   4.725
115 A   114 B   115 B   116 A   116 B   117 A   117 B                          
 --------------------------------------------------------------
 
          Ground-State Mulliken Net Atomic Charges

     Atom                 Charge (a.u.)
  ----------------------------------------
      1 S                    -0.012276
      2 C                    -0.039378
      3 C                    -0.425472
      4 C                     0.329613
      5 C                    -0.298282
      6 H                     0.142493
      7 C                    -0.298282
      8 S                    -0.012276
      9 C                     0.329613
     10 C                    -0.039378
     11 C                    -0.425472
     12 H                     0.115456
     13 H                     0.187846
     14 H                     0.115456
     15 H                     0.187846
     16 H                     0.142493
  ----------------------------------------
  Sum of atomic charges =    -0.000000

 -----------------------------------------------------------------
                    Cartesian Multipole Moments
 -----------------------------------------------------------------
    Charge (ESU x 10^10)
                -0.0000
    Dipole Moment (Debye)
         X      -0.0000      Y      -0.0000      Z      -0.9178
       Tot       0.9178
    Quadrupole Moments (Debye-Ang)
        XX     -61.0231     XY      -1.1218     YY     -76.7053
        XZ       0.0000     YZ      -0.0000     ZZ     -69.5617
    Octopole Moments (Debye-Ang^2)
       XXX      -0.0000    XXY      -0.0000    XYY      -0.0000
       YYY      -0.0000    XXZ       6.3983    XYZ      11.2386
       YYZ       0.0541    XZZ      -0.0000    YZZ      -0.0000
       ZZZ      -4.4472
    Hexadecapole Moments (Debye-Ang^3)
      XXXX   -1869.5142   XXXY      -3.3491   XXYY    -416.7290
      XYYY       6.0450   YYYY    -201.0700   XXXZ       0.0000
      XXYZ       0.0000   XYYZ       0.0000   YYYZ      -0.0000
      XXZZ    -405.9860   XYZZ      -9.5951   YYZZ    -111.4773
      XZZZ       0.0000   YZZZ      -0.0000   ZZZZ    -485.0469
 -----------------------------------------------------------------
 Calculating analytic gradient of the SCF energy
 Gradient of SCF Energy
            1           2           3           4           5           6
    1  -0.0010422   0.0003837  -0.0016152   0.0014357  -0.0030576   0.0011107
    2   0.0004103  -0.0019252   0.0005896   0.0004067  -0.0005344   0.0006444
    3  -0.0016478  -0.0034730   0.0024540   0.0025687  -0.0011881   0.0008134
            7           8           9          10          11          12
    1   0.0030576   0.0010422  -0.0014357  -0.0003837   0.0016152   0.0011093
    2   0.0005344  -0.0004103  -0.0004067   0.0019252  -0.0005896  -0.0005765
    3  -0.0011881  -0.0016478   0.0025687  -0.0034730   0.0024540   0.0009531
           13          14          15          16
    1  -0.0016610  -0.0011093   0.0016610  -0.0011107
    2  -0.0001206   0.0005765   0.0001206  -0.0006444
    3  -0.0004804   0.0009531  -0.0004804   0.0008134
 Max gradient component =       3.473E-03
 RMS gradient           =       1.535E-03
 Gradient time:  CPU 1.91 s  wall 1.94 s
 Geometry Optimization Parameters
   NAtoms,    NIC,     NZ,  NCons,   NDum,   NFix, NCnnct, MaxDiis
       16     111       0       1       0       0       0       0


** CONSTRAINED OPTIMIZATION IN DELOCALIZED INTERNAL COORDINATES **
   Searching for a Minimum

   Optimization Cycle:   1

                       Coordinates (Angstroms)
     ATOM                X               Y               Z
      1  S         1.6550286208    0.5527447833    1.0385949402
      2  C         3.1480793055    0.0967572168    0.2870861803
      3  C         2.9422852178   -0.4595761834   -0.9431814287
      4  C         1.5652655856   -0.5389956559   -1.2911965665
      5  C         0.7245125491   -0.0403263966   -0.3236501419
      6  H         1.2030822741   -0.9726854048   -2.2143234185
      7  C        -0.7245125491    0.0403263966   -0.3236501419
      8  S        -1.6550286208   -0.5527447833    1.0385949402
      9  C        -1.5652655856    0.5389956559   -1.2911965665
     10  C        -3.1480793055   -0.0967572168    0.2870861803
     11  C        -2.9422852178    0.4595761834   -0.9431814287
     12  H        -3.7445069639    0.8116859142   -1.5781404405
     13  H         4.0816380427    0.2684238004    0.8005969665
     14  H         3.7445069639   -0.8116859142   -1.5781404405
     15  H        -4.0816380427   -0.2684238004    0.8005969665
     16  H        -1.2030822741    0.9726854048   -2.2143234185
   Point Group: c2    Number of degrees of freedom:    22


   Energy is  -1104.838919378

              Constraints and their Current Values
                                        Value     Constraint
   Dihedral:        4   5   7   9      -50.000      -50.000

 Attempting to Generate Delocalized Internal Coordinates

 21 Hessian modes will be used to form the next step
  Hessian Eigenvalues:
     0.045000    0.045000    0.045000    0.045002    0.045004    0.045013
     0.159937    0.159990    0.160000    0.221280    0.237833    0.249997
     0.296078    0.314672    0.357149    0.357543    0.360899    0.380793
     0.408411    0.470750    0.505998

 Minimum Search - Taking Simple RFO Step
 Searching for Lamda that Minimizes Along All modes
 Value Taken    Lamda =  -0.00054007
 Step Taken.  Stepsize is  0.052689

                             Maximum     Tolerance    Cnvgd?
         Gradient           0.006687      0.000300      NO
         Displacement       0.027722      0.001200      NO
         Energy change     *********      0.000001      NO


 New Cartesian Coordinates Obtained by Inverse Iteration

 Displacement from previous Coordinates is:  0.167705
 ----------------------------------------------------------------
             Standard Nuclear Orientation (Angstroms)
    I     Atom           X                Y                Z
 ----------------------------------------------------------------
    1      S       1.6770996379     0.5450332609     1.0543513691
    2      C       3.1637214486     0.1000980766     0.2807473922
    3      C       2.9437016866    -0.4550963444    -0.9528530367
    4      C       1.5583263218    -0.5395794056    -1.2830428933
    5      C       0.7284680453    -0.0385143674    -0.3039635130
    6      H       1.1796471431    -0.9733263432    -2.2018084314
    7      C      -0.7284680453     0.0385143674    -0.3039635130
    8      S      -1.6770996379    -0.5450332609     1.0543513691
    9      C      -1.5583263218     0.5395794056    -1.2830428933
   10      C      -3.1637214486    -0.1000980766     0.2807473922
   11      C      -2.9437016866     0.4550963444    -0.9528530367
   12      H      -3.7401010545     0.8049078420    -1.6002433175
   13      H       4.1064282483     0.2717846604     0.7825985216
   14      H       3.7401010545    -0.8049078420    -1.6002433175
   15      H      -4.1064282483    -0.2717846604     0.7825985216
   16      H      -1.1796471431     0.9733263432    -2.2018084314
 ----------------------------------------------------------------
 Molecular Point Group                 C2    NOp =  2
 Largest Abelian Subgroup              C2    NOp =  2
 Nuclear Repulsion Energy =   630.0640118457 hartrees
 There are       43 alpha and       43 beta electrons
 Applying Cartesian multipole field
    Component          Value
    ---------          -----
     (2,0,0)        1.00000E-11
     (0,2,0)        2.00000E-11
     (0,0,2)       -3.00000E-11
 Nucleus-field energy     =     0.0000000071 hartrees
 Requested basis set is 6-31++G(d,p)
 There are 76 shells and 234 basis functions
 A cutoff of  1.0D-11 yielded   2491 shell pairs
 There are     24623 function pairs
 Smallest overlap matrix eigenvalue = 1.15E-06

 Q-Chem warning in module /project/projectdirs/jcesr/qchem/qc44/cnl_qc441/compile/cori/qc_src/stvman/mkSTV.C, line 257:

 Overlap eigenvalue is smaller than square root of threshold

 Guess MOs from SCF MO coefficient file
 Reading MOs from coefficient file
 Reading MOs from coefficient file
 A restricted hybrid HF-DFT SCF calculation will be
 performed using Pulay DIIS extrapolation
 Exchange:     0.2000 Hartree-Fock + 0.0800 Slater + 0.7200 B88
 Correlation:  0.1900 VWN1RPA + 0.8100 LYP
 Using SG-1 standard quadrature grid
 SCF converges when DIIS error is below 1.0E-08
 Geometry optimization detected.  Setting ReadMinima to 0
 Setting SaveMinima to 0
 ---------------------------------------
  Cycle       Energy         DIIS Error
 ---------------------------------------
    1   -1104.8196324885      7.06E-04
    2   -1104.8388811703      2.00E-04
    3   -1104.8377756825      4.30E-04
    4   -1104.8392126502      2.68E-05
    5   -1104.8392167863      1.23E-05
    6   -1104.8392177840      3.83E-06
    7   -1104.8392178910      1.29E-06
    8   -1104.8392179029      1.87E-07
    9   -1104.8392179016      5.32E-08
   10   -1104.8392179032      7.66E-09 Convergence criterion met
 ---------------------------------------
 SCF time:  CPU 5.47 s  wall 4.79 s
 SCF   energy in the final basis set = -1104.8392179032
 Total energy in the final basis set = -1104.8392179032
 
 --------------------------------------------------------------
             Orbital Energies (a.u.) and Symmetries
 --------------------------------------------------------------
 
 Alpha MOs, Restricted
 -- Occupied --                  
-88.919 -88.919 -10.238 -10.237 -10.225 -10.225 -10.204 -10.204
  1 B     1 A     2 A     2 B     3 B     3 A     4 B     4 A                  
-10.204 -10.204  -7.979  -7.979  -5.943  -5.943  -5.939  -5.939
  5 B     5 A     6 B     6 A     7 B     7 A     8 B     8 A                  
 -5.936  -5.936  -0.899  -0.877  -0.770  -0.746  -0.738  -0.705
  9 A     9 B    10 A    10 B    11 A    12 A    11 B    12 B                  
 -0.602  -0.574  -0.558  -0.534  -0.524  -0.477  -0.419  -0.416
 13 A    14 A    13 B    14 B    15 A    15 B    16 A    17 A                  
 -0.411  -0.404  -0.397  -0.376  -0.374  -0.354  -0.347  -0.268
 16 B    17 B    18 A    18 B    19 A    20 A    19 B    20 B                  
 -0.262  -0.260  -0.222
 21 A    21 B    22 A                                                          
 -- Virtual --                   
 -0.049  -0.018  -0.006  -0.001   0.004   0.016   0.017   0.026
 22 B    23 A    24 A    23 B    25 A    24 B    26 A    27 A                  
  0.029   0.034   0.037   0.043   0.047   0.050   0.058   0.067
 25 B    26 B    28 A    27 B    29 A    28 B    30 A    29 B                  
  0.071   0.075   0.092   0.096   0.101   0.103   0.106   0.114
 31 A    30 B    32 A    31 B    32 B    33 A    34 A    35 A                  
  0.115   0.121   0.124   0.132   0.134   0.135   0.140   0.145
 33 B    34 B    36 A    37 A    35 B    36 B    38 A    39 A                  
  0.147   0.152   0.153   0.161   0.169   0.173   0.175   0.183
 37 B    38 B    40 A    39 B    41 A    42 A    40 B    43 A                  
  0.184   0.189   0.196   0.202   0.211   0.220   0.226   0.231
 41 B    42 B    44 A    43 B    44 B    45 A    45 B    46 A                  
  0.240   0.245   0.262   0.264   0.270   0.274   0.299   0.309
 46 B    47 B    48 B    47 A    48 A    49 A    49 B    50 A                  
  0.313   0.315   0.319   0.330   0.355   0.365   0.371   0.394
 50 B    51 A    51 B    52 A    53 A    52 B    53 B    54 A                  
  0.435   0.455   0.470   0.502   0.525   0.529   0.551   0.568
 54 B    55 A    56 A    55 B    57 A    56 B    57 B    58 B                  
  0.569   0.604   0.612   0.635   0.655   0.657   0.670   0.674
 58 A    59 A    59 B    60 A    61 A    60 B    61 B    62 A                  
  0.699   0.704   0.722   0.727   0.738   0.747   0.750   0.753
 63 A    62 B    64 A    63 B    64 B    65 A    65 B    66 A                  
  0.789   0.797   0.812   0.826   0.845   0.893   0.905   0.948
 66 B    67 A    67 B    68 A    68 B    69 A    69 B    70 A                  
  0.953   0.953   0.956   0.969   0.970   0.992   0.998   1.012
 70 B    71 A    71 B    72 A    72 B    73 A    73 B    74 A                  
  1.016   1.042   1.054   1.064   1.081   1.092   1.100   1.110
 74 B    75 B    75 A    76 B    76 A    77 A    77 B    78 A                  
  1.127   1.179   1.193   1.223   1.235   1.277   1.325   1.347
 78 B    79 A    80 A    79 B    80 B    81 A    81 B    82 A                  
  1.354   1.361   1.364   1.389   1.449   1.463   1.493   1.544
 82 B    83 A    83 B    84 A    84 B    85 B    85 A    86 A                  
  1.575   1.688   1.693   1.764   1.786   1.876   1.888   1.890
 86 B    87 B    87 A    88 B    88 A    89 A    89 B    90 A                  
  1.909   1.926   1.931   1.966   2.017   2.023   2.068   2.071
 90 B    91 A    92 A    91 B    92 B    93 A    93 B    94 A                  
  2.136   2.161   2.179   2.211   2.224   2.241   2.255   2.307
 95 A    94 B    95 B    96 A    96 B    97 A    97 B    98 A                  
  2.365   2.369   2.431   2.450   2.455   2.471   2.493   2.513
 99 A    98 B    99 B   100 A   101 A   100 B   101 B   102 A                  
  2.513   2.539   2.581   2.591   2.604   2.654   2.692   2.712
102 B   103 A   104 A   103 B   105 A   104 B   105 B   106 A                  
  2.770   2.789   2.865   2.895   2.948   3.146   3.196   3.270
106 B   107 A   108 A   107 B   108 B   109 A   109 B   110 B                  
  3.271   3.404   3.425   3.716   3.745   3.955   3.990   4.265
110 A   111 A   111 B   112 A   112 B   113 A   113 B   114 A                  
  4.311   4.322   4.330   4.417   4.537   4.655   4.717
115 A   114 B   115 B   116 A   116 B   117 A   117 B                          
 
 Beta MOs, Restricted
 -- Occupied --                  
-88.919 -88.919 -10.238 -10.237 -10.225 -10.225 -10.204 -10.204
  1 B     1 A     2 A     2 B     3 B     3 A     4 B     4 A                  
-10.204 -10.204  -7.979  -7.979  -5.943  -5.943  -5.939  -5.939
  5 B     5 A     6 B     6 A     7 B     7 A     8 B     8 A                  
 -5.936  -5.936  -0.899  -0.877  -0.770  -0.746  -0.738  -0.705
  9 A     9 B    10 A    10 B    11 A    12 A    11 B    12 B                  
 -0.602  -0.574  -0.558  -0.534  -0.524  -0.477  -0.419  -0.416
 13 A    14 A    13 B    14 B    15 A    15 B    16 A    17 A                  
 -0.411  -0.404  -0.397  -0.376  -0.374  -0.354  -0.347  -0.268
 16 B    17 B    18 A    18 B    19 A    20 A    19 B    20 B                  
 -0.262  -0.260  -0.222
 21 A    21 B    22 A                                                          
 -- Virtual --                   
 -0.049  -0.018  -0.006  -0.001   0.004   0.016   0.017   0.026
 22 B    23 A    24 A    23 B    25 A    24 B    26 A    27 A                  
  0.029   0.034   0.037   0.043   0.047   0.050   0.058   0.067
 25 B    26 B    28 A    27 B    29 A    28 B    30 A    29 B                  
  0.071   0.075   0.092   0.096   0.101   0.103   0.106   0.114
 31 A    30 B    32 A    31 B    32 B    33 A    34 A    35 A                  
  0.115   0.121   0.124   0.132   0.134   0.135   0.140   0.145
 33 B    34 B    36 A    37 A    35 B    36 B    38 A    39 A                  
  0.147   0.152   0.153   0.161   0.169   0.173   0.175   0.183
 37 B    38 B    40 A    39 B    41 A    42 A    40 B    43 A                  
  0.184   0.189   0.196   0.202   0.211   0.220   0.226   0.231
 41 B    42 B    44 A    43 B    44 B    45 A    45 B    46 A                  
  0.240   0.245   0.262   0.264   0.270   0.274   0.299   0.309
 46 B    47 B    48 B    47 A    48 A    49 A    49 B    50 A                  
  0.313   0.315   0.319   0.330   0.355   0.365   0.371   0.394
 50 B    51 A    51 B    52 A    53 A    52 B    53 B    54 A                  
  0.435   0.455   0.470   0.502   0.525   0.529   0.551   0.568
 54 B    55 A    56 A    55 B    57 A    56 B    57 B    58 B                  
  0.569   0.604   0.612   0.635   0.655   0.657   0.670   0.674
 58 A    59 A    59 B    60 A    61 A    60 B    61 B    62 A                  
  0.699   0.704   0.722   0.727   0.738   0.747   0.750   0.753
 63 A    62 B    64 A    63 B    64 B    65 A    65 B    66 A                  
  0.789   0.797   0.812   0.826   0.845   0.893   0.905   0.948
 66 B    67 A    67 B    68 A    68 B    69 A    69 B    70 A                  
  0.953   0.953   0.956   0.969   0.970   0.992   0.998   1.012
 70 B    71 A    71 B    72 A    72 B    73 A    73 B    74 A                  
  1.016   1.042   1.054   1.064   1.081   1.092   1.100   1.110
 74 B    75 B    75 A    76 B    76 A    77 A    77 B    78 A                  
  1.127   1.179   1.193   1.223   1.235   1.277   1.325   1.347
 78 B    79 A    80 A    79 B    80 B    81 A    81 B    82 A                  
  1.354   1.361   1.364   1.389   1.449   1.463   1.493   1.544
 82 B    83 A    83 B    84 A    84 B    85 B    85 A    86 A                  
  1.575   1.688   1.693   1.764   1.786   1.876   1.888   1.890
 86 B    87 B    87 A    88 B    88 A    89 A    89 B    90 A                  
  1.909   1.926   1.931   1.966   2.017   2.023   2.068   2.071
 90 B    91 A    92 A    91 B    92 B    93 A    93 B    94 A                  
  2.136   2.161   2.179   2.211   2.224   2.241   2.255   2.307
 95 A    94 B    95 B    96 A    96 B    97 A    97 B    98 A                  
  2.365   2.369   2.431   2.450   2.455   2.471   2.493   2.513
 99 A    98 B    99 B   100 A   101 A   100 B   101 B   102 A                  
  2.513   2.539   2.581   2.591   2.604   2.654   2.692   2.712
102 B   103 A   104 A   103 B   105 A   104 B   105 B   106 A                  
  2.770   2.789   2.865   2.895   2.948   3.146   3.196   3.270
106 B   107 A   108 A   107 B   108 B   109 A   109 B   110 B                  
  3.271   3.404   3.425   3.716   3.745   3.955   3.990   4.265
110 A   111 A   111 B   112 A   112 B   113 A   113 B   114 A                  
  4.311   4.322   4.330   4.417   4.537   4.655   4.717
115 A   114 B   115 B   116 A   116 B   117 A   117 B                          
 --------------------------------------------------------------
 
          Ground-State Mulliken Net Atomic Charges

     Atom                 Charge (a.u.)
  ----------------------------------------
      1 S                    -0.001479
      2 C                    -0.047506
      3 C                    -0.417403
      4 C                     0.298943
      5 C                    -0.281113
      6 H                     0.144048
      7 C                    -0.281114
      8 S                    -0.001479
      9 C                     0.298943
     10 C                    -0.047506
     11 C                    -0.417403
     12 H                     0.116210
     13 H                     0.188301
     14 H                     0.116210
     15 H                     0.188301
     16 H                     0.144048
  ----------------------------------------
  Sum of atomic charges =    -0.000000

 -----------------------------------------------------------------
                    Cartesian Multipole Moments
 -----------------------------------------------------------------
    Charge (ESU x 10^10)
                -0.0000
    Dipole Moment (Debye)
         X      -0.0000      Y      -0.0000      Z      -0.9285
       Tot       0.9285
    Quadrupole Moments (Debye-Ang)
        XX     -60.9630     XY      -1.0593     YY     -76.8291
        XZ      -0.0000     YZ       0.0000     ZZ     -69.6078
    Octopole Moments (Debye-Ang^2)
       XXX      -0.0000    XXY      -0.0000    XYY       0.0000
       YYY       0.0000    XXZ       5.8162    XYZ      11.2164
       YYZ      -0.4533    XZZ       0.0000    YZZ       0.0000
       ZZZ      -5.8953
    Hexadecapole Moments (Debye-Ang^3)
      XXXX   -1882.3556   XXXY      -2.6506   XXYY    -420.6836
      XYYY       4.9155   YYYY    -199.8499   XXXZ      -0.0000
      XXYZ       0.0000   XYYZ      -0.0000   YYYZ      -0.0000
      XXZZ    -409.8896   XYZZ     -10.1352   YYZZ    -112.0701
      XZZZ      -0.0000   YZZZ      -0.0000   ZZZZ    -489.3835
 -----------------------------------------------------------------
 Calculating analytic gradient of the SCF energy
 Gradient of SCF Energy
            1           2           3           4           5           6
    1  -0.0000260   0.0006190  -0.0001571   0.0001721  -0.0005391   0.0001428
    2   0.0003393   0.0001458  -0.0001552  -0.0010186   0.0012023   0.0000514
    3   0.0001463   0.0001203   0.0001005   0.0008643  -0.0010874  -0.0002341
            7           8           9          10          11          12
    1   0.0005391   0.0000260  -0.0001721  -0.0006190   0.0001571  -0.0000685
    2  -0.0012023  -0.0003393   0.0010186  -0.0001458   0.0001552   0.0000709
    3  -0.0010874   0.0001463   0.0008643   0.0001203   0.0001005  -0.0000748
           13          14          15          16
    1   0.0000335   0.0000685  -0.0000335  -0.0001428
    2   0.0000763  -0.0000709  -0.0000763  -0.0000514
    3   0.0001648  -0.0000748   0.0001648  -0.0002341
 Max gradient component =       1.202E-03
 RMS gradient           =       4.776E-04
 Gradient time:  CPU 1.89 s  wall 1.91 s
 Geometry Optimization Parameters
   NAtoms,    NIC,     NZ,  NCons,   NDum,   NFix, NCnnct, MaxDiis
       16     111       0       1       0       0       0       0

 Cartesian Hessian Update
 Hessian Updated using BFGS Update


** CONSTRAINED OPTIMIZATION IN DELOCALIZED INTERNAL COORDINATES **
   Searching for a Minimum

   Optimization Cycle:   2

                       Coordinates (Angstroms)
     ATOM                X               Y               Z
      1  S         1.6770996379    0.5450332609    1.0543513691
      2  C         3.1637214486    0.1000980766    0.2807473922
      3  C         2.9437016866   -0.4550963444   -0.9528530367
      4  C         1.5583263218   -0.5395794056   -1.2830428933
      5  C         0.7284680453   -0.0385143674   -0.3039635130
      6  H         1.1796471431   -0.9733263432   -2.2018084314
      7  C        -0.7284680453    0.0385143674   -0.3039635130
      8  S        -1.6770996379   -0.5450332609    1.0543513691
      9  C        -1.5583263218    0.5395794056   -1.2830428933
     10  C        -3.1637214486   -0.1000980766    0.2807473922
     11  C        -2.9437016866    0.4550963444   -0.9528530367
     12  H        -3.7401010545    0.8049078420   -1.6002433175
     13  H         4.1064282483    0.2717846604    0.7825985216
     14  H         3.7401010545   -0.8049078420   -1.6002433175
     15  H        -4.1064282483   -0.2717846604    0.7825985216
     16  H        -1.1796471431    0.9733263432   -2.2018084314
   Point Group: c2    Number of degrees of freedom:    22


   Energy is  -1104.839217903

              Constraints and their Current Values
                                        Value     Constraint
   Dihedral:        4   5   7   9      -50.000      -50.000
 Hessian Updated using BFGS Update

 21 Hessian modes will be used to form the next step
  Hessian Eigenvalues:
     0.042212    0.045000    0.045001    0.045002    0.045012    0.045312
     0.154735    0.159986    0.160025    0.198491    0.222479    0.240713
     0.300445    0.314948    0.357300    0.358839    0.363225    0.388880
     0.435039    0.470671    0.547700

 Minimum Search - Taking Simple RFO Step
 Searching for Lamda that Minimizes Along All modes
 Value Taken    Lamda =  -0.00005535
 Step Taken.  Stepsize is  0.021905

                             Maximum     Tolerance    Cnvgd?
         Gradient           0.002658      0.000300      NO
         Displacement       0.013882      0.001200      NO
         Energy change     -0.000299      0.000001      NO


 New Cartesian Coordinates Obtained by Inverse Iteration

 Displacement from previous Coordinates is:  0.088970
 ----------------------------------------------------------------
             Standard Nuclear Orientation (Angstroms)
    I     Atom           X                Y                Z
 ----------------------------------------------------------------
    1      S       1.6841192844     0.5424168388     1.0619581997
    2      C       3.1651086692     0.1004742097     0.2760670524
    3      C       2.9386883767    -0.4514691044    -0.9579869796
    4      C       1.5511903820    -0.5373717106    -1.2780607933
    5      C       0.7286994729    -0.0363533264    -0.2928434756
    6      H       1.1642059853    -0.9706591172    -2.1935261481
    7      C      -0.7286994729     0.0363533264    -0.2928434756
    8      S      -1.6841192844    -0.5424168388     1.0619581997
    9      C      -1.5511903820     0.5373717106    -1.2780607933
   10      C      -3.1651086692    -0.1004742097     0.2760670524
   11      C      -2.9386883767     0.4514691044    -0.9579869796
   12      H      -3.7313893228     0.7991591915    -1.6110456202
   13      H       4.1116043061     0.2709063469     0.7712238555
   14      H       3.7313893228    -0.7991591915    -1.6110456202
   15      H      -4.1116043061    -0.2709063469     0.7712238555
   16      H      -1.1642059853     0.9706591172    -2.1935261481
 ----------------------------------------------------------------
 Molecular Point Group                 C2    NOp =  2
 Largest Abelian Subgroup              C2    NOp =  2
 Nuclear Repulsion Energy =   629.9588632587 hartrees
 There are       43 alpha and       43 beta electrons
 Applying Cartesian multipole field
    Component          Value
    ---------          -----
     (2,0,0)        1.00000E-11
     (0,2,0)        2.00000E-11
     (0,0,2)       -3.00000E-11
 Nucleus-field energy     =     0.0000000071 hartrees
 Requested basis set is 6-31++G(d,p)
 There are 76 shells and 234 basis functions
 A cutoff of  1.0D-11 yielded   2491 shell pairs
 There are     24623 function pairs
 Smallest overlap matrix eigenvalue = 1.15E-06

 Q-Chem warning in module /project/projectdirs/jcesr/qchem/qc44/cnl_qc441/compile/cori/qc_src/stvman/mkSTV.C, line 257:

 Overlap eigenvalue is smaller than square root of threshold

 Guess MOs from SCF MO coefficient file
 Reading MOs from coefficient file
 Reading MOs from coefficient file
 A restricted hybrid HF-DFT SCF calculation will be
 performed using Pulay DIIS extrapolation
 Exchange:     0.2000 Hartree-Fock + 0.0800 Slater + 0.7200 B88
 Correlation:  0.1900 VWN1RPA + 0.8100 LYP
 Using SG-1 standard quadrature grid
 SCF converges when DIIS error is below 1.0E-08
 Geometry optimization detected.  Setting ReadMinima to 0
 Setting SaveMinima to 0
 ---------------------------------------
  Cycle       Energy         DIIS Error
 ---------------------------------------
    1   -1104.8396872522      3.66E-04
    2   -1104.8391891332      8.92E-05
    3   -1104.8389693882      1.92E-04
    4   -1104.8392510496      1.36E-05
    5   -1104.8392522600      4.48E-06
    6   -1104.8392523789      1.63E-06
    7   -1104.8392523963      6.88E-07
    8   -1104.8392524005      1.90E-07
    9   -1104.8392524006      3.02E-08
   10   -1104.8392524023      1.33E-08
   11   -1104.8392524020      3.48E-09 Convergence criterion met
 ---------------------------------------
 SCF time:  CPU 5.80 s  wall 5.11 s
 SCF   energy in the final basis set = -1104.8392524020
 Total energy in the final basis set = -1104.8392524020
 
 --------------------------------------------------------------
             Orbital Energies (a.u.) and Symmetries
 --------------------------------------------------------------
 
 Alpha MOs, Restricted
 -- Occupied --                  
-88.920 -88.920 -10.237 -10.237 -10.225 -10.225 -10.204 -10.204
  1 B     1 A     2 A     2 B     3 B     3 A     4 B     4 A                  
-10.203 -10.203  -7.979  -7.979  -5.943  -5.943  -5.939  -5.939
  5 B     5 A     6 B     6 A     7 B     7 A     8 B     8 A                  
 -5.936  -5.936  -0.899  -0.877  -0.770  -0.746  -0.738  -0.705
  9 A     9 B    10 A    10 B    11 A    12 A    11 B    12 B                  
 -0.602  -0.574  -0.558  -0.534  -0.524  -0.477  -0.419  -0.416
 13 A    14 A    13 B    14 B    15 A    15 B    16 A    17 A                  
 -0.411  -0.404  -0.397  -0.376  -0.374  -0.355  -0.348  -0.268
 16 B    17 B    18 A    18 B    19 A    20 A    19 B    20 B                  
 -0.262  -0.260  -0.222
 21 A    21 B    22 A                                                          
 -- Virtual --                   
 -0.049  -0.018  -0.006  -0.001   0.004   0.016   0.017   0.026
 22 B    23 A    24 A    23 B    25 A    24 B    26 A    27 A                  
  0.029   0.034   0.037   0.043   0.047   0.050   0.058   0.067
 25 B    26 B    28 A    27 B    29 A    28 B    30 A    29 B                  
  0.071   0.075   0.092   0.095   0.101   0.103   0.106   0.114
 31 A    30 B    32 A    31 B    32 B    33 A    34 A    35 A                  
  0.114   0.121   0.124   0.132   0.134   0.135   0.140   0.145
 33 B    34 B    36 A    37 A    35 B    36 B    38 A    39 A                  
  0.147   0.152   0.153   0.161   0.169   0.173   0.175   0.183
 37 B    38 B    40 A    39 B    41 A    42 A    40 B    43 A                  
  0.184   0.189   0.196   0.202   0.211   0.220   0.226   0.231
 41 B    42 B    44 A    43 B    44 B    45 A    45 B    46 A                  
  0.240   0.246   0.262   0.264   0.271   0.273   0.299   0.309
 46 B    47 B    48 B    47 A    48 A    49 A    49 B    50 A                  
  0.313   0.316   0.318   0.330   0.355   0.365   0.371   0.394
 50 B    51 A    51 B    52 A    53 A    52 B    53 B    54 A                  
  0.435   0.455   0.470   0.501   0.525   0.529   0.552   0.568
 54 B    55 A    56 A    55 B    57 A    56 B    57 B    58 B                  
  0.569   0.605   0.612   0.635   0.655   0.656   0.670   0.674
 58 A    59 A    59 B    60 A    61 A    60 B    61 B    62 A                  
  0.700   0.703   0.722   0.727   0.738   0.746   0.749   0.753
 63 A    62 B    64 A    63 B    64 B    65 A    65 B    66 A                  
  0.789   0.797   0.812   0.826   0.846   0.893   0.905   0.948
 66 B    67 A    67 B    68 A    68 B    69 A    69 B    70 A                  
  0.952   0.953   0.956   0.969   0.970   0.992   0.998   1.011
 70 B    71 A    71 B    72 A    72 B    73 A    73 B    74 A                  
  1.017   1.043   1.054   1.063   1.081   1.092   1.099   1.109
 74 B    75 B    75 A    76 B    76 A    77 A    77 B    78 A                  
  1.127   1.179   1.194   1.223   1.236   1.277   1.326   1.347
 78 B    79 A    80 A    79 B    80 B    81 A    81 B    82 A                  
  1.354   1.360   1.363   1.390   1.449   1.461   1.492   1.544
 82 B    83 A    83 B    84 A    84 B    85 B    85 A    86 A                  
  1.575   1.688   1.693   1.763   1.785   1.877   1.887   1.890
 86 B    87 B    87 A    88 B    88 A    89 A    89 B    90 A                  
  1.909   1.927   1.932   1.967   2.017   2.023   2.068   2.071
 90 B    91 A    92 A    91 B    92 B    93 A    93 B    94 A                  
  2.136   2.162   2.180   2.210   2.225   2.241   2.257   2.307
 95 A    94 B    95 B    96 A    96 B    97 A    97 B    98 A                  
  2.366   2.369   2.431   2.450   2.455   2.471   2.493   2.513
 99 A    98 B    99 B   100 A   101 A   100 B   101 B   102 B                  
  2.514   2.539   2.581   2.590   2.604   2.654   2.692   2.712
102 A   103 A   104 A   103 B   105 A   104 B   105 B   106 A                  
  2.771   2.789   2.866   2.894   2.946   3.146   3.196   3.269
106 B   107 A   108 A   107 B   108 B   109 A   109 B   110 B                  
  3.271   3.404   3.425   3.717   3.746   3.955   3.989   4.266
110 A   111 A   111 B   112 A   112 B   113 A   113 B   114 A                  
  4.312   4.322   4.330   4.417   4.537   4.655   4.716
115 A   114 B   115 B   116 A   116 B   117 A   117 B                          
 
 Beta MOs, Restricted
 -- Occupied --                  
-88.920 -88.920 -10.237 -10.237 -10.225 -10.225 -10.204 -10.204
  1 B     1 A     2 A     2 B     3 B     3 A     4 B     4 A                  
-10.203 -10.203  -7.979  -7.979  -5.943  -5.943  -5.939  -5.939
  5 B     5 A     6 B     6 A     7 B     7 A     8 B     8 A                  
 -5.936  -5.936  -0.899  -0.877  -0.770  -0.746  -0.738  -0.705
  9 A     9 B    10 A    10 B    11 A    12 A    11 B    12 B                  
 -0.602  -0.574  -0.558  -0.534  -0.524  -0.477  -0.419  -0.416
 13 A    14 A    13 B    14 B    15 A    15 B    16 A    17 A                  
 -0.411  -0.404  -0.397  -0.376  -0.374  -0.355  -0.348  -0.268
 16 B    17 B    18 A    18 B    19 A    20 A    19 B    20 B                  
 -0.262  -0.260  -0.222
 21 A    21 B    22 A                                                          
 -- Virtual --                   
 -0.049  -0.018  -0.006  -0.001   0.004   0.016   0.017   0.026
 22 B    23 A    24 A    23 B    25 A    24 B    26 A    27 A                  
  0.029   0.034   0.037   0.043   0.047   0.050   0.058   0.067
 25 B    26 B    28 A    27 B    29 A    28 B    30 A    29 B                  
  0.071   0.075   0.092   0.095   0.101   0.103   0.106   0.114
 31 A    30 B    32 A    31 B    32 B    33 A    34 A    35 A                  
  0.114   0.121   0.124   0.132   0.134   0.135   0.140   0.145
 33 B    34 B    36 A    37 A    35 B    36 B    38 A    39 A                  
  0.147   0.152   0.153   0.161   0.169   0.173   0.175   0.183
 37 B    38 B    40 A    39 B    41 A    42 A    40 B    43 A                  
  0.184   0.189   0.196   0.202   0.211   0.220   0.226   0.231
 41 B    42 B    44 A    43 B    44 B    45 A    45 B    46 A                  
  0.240   0.246   0.262   0.264   0.271   0.273   0.299   0.309
 46 B    47 B    48 B    47 A    48 A    49 A    49 B    50 A                  
  0.313   0.316   0.318   0.330   0.355   0.365   0.371   0.394
 50 B    51 A    51 B    52 A    53 A    52 B    53 B    54 A                  
  0.435   0.455   0.470   0.501   0.525   0.529   0.552   0.568
 54 B    55 A    56 A    55 B    57 A    56 B    57 B    58 B                  
  0.569   0.605   0.612   0.635   0.655   0.656   0.670   0.674
 58 A    59 A    59 B    60 A    61 A    60 B    61 B    62 A                  
  0.700   0.703   0.722   0.727   0.738   0.746   0.749   0.753
 63 A    62 B    64 A    63 B    64 B    65 A    65 B    66 A                  
  0.789   0.797   0.812   0.826   0.846   0.893   0.905   0.948
 66 B    67 A    67 B    68 A    68 B    69 A    69 B    70 A                  
  0.952   0.953   0.956   0.969   0.970   0.992   0.998   1.011
 70 B    71 A    71 B    72 A    72 B    73 A    73 B    74 A                  
  1.017   1.043   1.054   1.063   1.081   1.092   1.099   1.109
 74 B    75 B    75 A    76 B    76 A    77 A    77 B    78 A                  
  1.127   1.179   1.194   1.223   1.236   1.277   1.326   1.347
 78 B    79 A    80 A    79 B    80 B    81 A    81 B    82 A                  
  1.354   1.360   1.363   1.390   1.449   1.461   1.492   1.544
 82 B    83 A    83 B    84 A    84 B    85 B    85 A    86 A                  
  1.575   1.688   1.693   1.763   1.785   1.877   1.887   1.890
 86 B    87 B    87 A    88 B    88 A    89 A    89 B    90 A                  
  1.909   1.927   1.932   1.967   2.017   2.023   2.068   2.071
 90 B    91 A    92 A    91 B    92 B    93 A    93 B    94 A                  
  2.136   2.162   2.180   2.210   2.225   2.241   2.257   2.307
 95 A    94 B    95 B    96 A    96 B    97 A    97 B    98 A                  
  2.366   2.369   2.431   2.450   2.455   2.471   2.493   2.513
 99 A    98 B    99 B   100 A   101 A   100 B   101 B   102 B                  
  2.514   2.539   2.581   2.590   2.604   2.654   2.692   2.712
102 A   103 A   104 A   103 B   105 A   104 B   105 B   106 A                  
  2.771   2.789   2.866   2.894   2.946   3.146   3.196   3.269
106 B   107 A   108 A   107 B   108 B   109 A   109 B   110 B                  
  3.271   3.404   3.425   3.717   3.746   3.955   3.989   4.266
110 A   111 A   111 B   112 A   112 B   113 A   113 B   114 A                  
  4.312   4.322   4.330   4.417   4.537   4.655   4.716
115 A   114 B   115 B   116 A   116 B   117 A   117 B                          
 --------------------------------------------------------------
 
          Ground-State Mulliken Net Atomic Charges

     Atom                 Charge (a.u.)
  ----------------------------------------
      1 S                     0.004930
      2 C                    -0.053432
      3 C                    -0.414353
      4 C                     0.288176
      5 C                    -0.274129
      6 H                     0.144629
      7 C                    -0.274129
      8 S                     0.004930
      9 C                     0.288176
     10 C                    -0.053432
     11 C                    -0.414353
     12 H                     0.116362
     13 H                     0.187818
     14 H                     0.116362
     15 H                     0.187818
     16 H                     0.144629
  ----------------------------------------
  Sum of atomic charges =    -0.000000

 -----------------------------------------------------------------
                    Cartesian Multipole Moments
 -----------------------------------------------------------------
    Charge (ESU x 10^10)
                -0.0000
    Dipole Moment (Debye)
         X      -0.0000      Y      -0.0000      Z      -0.9317
       Tot       0.9317
    Quadrupole Moments (Debye-Ang)
        XX     -61.0024     XY      -1.0315     YY     -76.8425
        XZ       0.0000     YZ       0.0000     ZZ     -69.6069
    Octopole Moments (Debye-Ang^2)
       XXX      -0.0000    XXY      -0.0000    XYY      -0.0000
       YYY      -0.0000    XXZ       5.3839    XYZ      11.1283
       YYZ      -0.6859    XZZ      -0.0000    YZZ       0.0000
       ZZZ      -6.6120
    Hexadecapole Moments (Debye-Ang^3)
      XXXX   -1882.6582   XXXY      -2.8855   XXYY    -420.9092
      XYYY       3.9899   YYYY    -198.8752   XXXZ       0.0000
      XXYZ      -0.0000   XYYZ       0.0000   YYYZ       0.0000
      XXZZ    -410.3320   XYZZ     -10.4189   YYZZ    -112.2627
      XZZZ       0.0000   YZZZ       0.0000   ZZZZ    -491.0385
 -----------------------------------------------------------------
 Calculating analytic gradient of the SCF energy
 Gradient of SCF Energy
            1           2           3           4           5           6
    1   0.0000535  -0.0000794   0.0000386  -0.0000615   0.0002614   0.0000079
    2   0.0003197   0.0002047  -0.0000643  -0.0013526   0.0020946   0.0000228
    3   0.0005131   0.0001855  -0.0002404   0.0007927  -0.0010248  -0.0001708
            7           8           9          10          11          12
    1  -0.0002614  -0.0000535   0.0000615   0.0000794  -0.0000386  -0.0000563
    2  -0.0020946  -0.0003197   0.0013526  -0.0002047   0.0000643   0.0001001
    3  -0.0010248   0.0005131   0.0007927   0.0001855  -0.0002404  -0.0001236
           13          14          15          16
    1   0.0000869   0.0000563  -0.0000869  -0.0000079
    2   0.0000063  -0.0001001  -0.0000063  -0.0000228
    3   0.0000682  -0.0001236   0.0000682  -0.0001708
 Max gradient component =       2.095E-03
 RMS gradient           =       5.970E-04
 Gradient time:  CPU 1.92 s  wall 1.89 s
 Geometry Optimization Parameters
   NAtoms,    NIC,     NZ,  NCons,   NDum,   NFix, NCnnct, MaxDiis
       16     111       0       1       0       0       0       0

 Cartesian Hessian Update
 Hessian Updated using BFGS Update


** CONSTRAINED OPTIMIZATION IN DELOCALIZED INTERNAL COORDINATES **
   Searching for a Minimum

   Optimization Cycle:   3

                       Coordinates (Angstroms)
     ATOM                X               Y               Z
      1  S         1.6841192844    0.5424168388    1.0619581997
      2  C         3.1651086692    0.1004742097    0.2760670524
      3  C         2.9386883767   -0.4514691044   -0.9579869796
      4  C         1.5511903820   -0.5373717106   -1.2780607933
      5  C         0.7286994729   -0.0363533264   -0.2928434756
      6  H         1.1642059853   -0.9706591172   -2.1935261481
      7  C        -0.7286994729    0.0363533264   -0.2928434756
      8  S        -1.6841192844   -0.5424168388    1.0619581997
      9  C        -1.5511903820    0.5373717106   -1.2780607933
     10  C        -3.1651086692   -0.1004742097    0.2760670524
     11  C        -2.9386883767    0.4514691044   -0.9579869796
     12  H        -3.7313893228    0.7991591915   -1.6110456202
     13  H         4.1116043061    0.2709063469    0.7712238555
     14  H         3.7313893228   -0.7991591915   -1.6110456202
     15  H        -4.1116043061   -0.2709063469    0.7712238555
     16  H        -1.1642059853    0.9706591172   -2.1935261481
   Point Group: c2    Number of degrees of freedom:    22


   Energy is  -1104.839252402

              Constraints and their Current Values
                                        Value     Constraint
   Dihedral:        4   5   7   9      -50.000      -50.000
 Hessian Updated using BFGS Update

 21 Hessian modes will be used to form the next step
  Hessian Eigenvalues:
     0.037372    0.045000    0.045001    0.045009    0.045114    0.045885
     0.138153    0.159994    0.160660    0.174394    0.223447    0.261113
     0.300128    0.315865    0.357288    0.358863    0.362792    0.388618
     0.431807    0.475107    0.534604

 Minimum Search - Taking Simple RFO Step
 Searching for Lamda that Minimizes Along All modes
 Value Taken    Lamda =  -0.00001123
 Step Taken.  Stepsize is  0.011958

                             Maximum     Tolerance    Cnvgd?
         Gradient           0.000711      0.000300      NO
         Displacement       0.006139      0.001200      NO
         Energy change     -0.000034      0.000001      NO


 New Cartesian Coordinates Obtained by Inverse Iteration

 Displacement from previous Coordinates is:  0.037040
 ----------------------------------------------------------------
             Standard Nuclear Orientation (Angstroms)
    I     Atom           X                Y                Z
 ----------------------------------------------------------------
    1      S       1.6873911902     0.5405190028     1.0642173175
    2      C       3.1664262204     0.0998347074     0.2742592120
    3      C       2.9367952910    -0.4496377966    -0.9598668743
    4      C       1.5484302633    -0.5352120622    -1.2762018617
    5      C       0.7286330624    -0.0348464939    -0.2883723855
    6      H       1.1581351544    -0.9682937293    -2.1901161801
    7      C      -0.7286330624     0.0348464939    -0.2883723855
    8      S      -1.6873911902    -0.5405190028     1.0642173175
    9      C      -1.5484302633     0.5352120622    -1.2762018617
   10      C      -3.1664262204    -0.0998347074     0.2742592120
   11      C      -2.9367952910     0.4496377966    -0.9598668743
   12      H      -3.7280593445     0.7959682799    -1.6150297266
   13      H       4.1142294845     0.2695060300     0.7668965895
   14      H       3.7280593445    -0.7959682799    -1.6150297266
   15      H      -4.1142294845    -0.2695060300     0.7668965895
   16      H      -1.1581351544     0.9682937293    -2.1901161801
 ----------------------------------------------------------------
 Molecular Point Group                 C2    NOp =  2
 Largest Abelian Subgroup              C2    NOp =  2
 Nuclear Repulsion Energy =   629.9949741548 hartrees
 There are       43 alpha and       43 beta electrons
 Applying Cartesian multipole field
    Component          Value
    ---------          -----
     (2,0,0)        1.00000E-11
     (0,2,0)        2.00000E-11
     (0,0,2)       -3.00000E-11
 Nucleus-field energy     =     0.0000000071 hartrees
 Requested basis set is 6-31++G(d,p)
 There are 76 shells and 234 basis functions
 A cutoff of  1.0D-11 yielded   2493 shell pairs
 There are     24631 function pairs
 Smallest overlap matrix eigenvalue = 1.15E-06

 Q-Chem warning in module /project/projectdirs/jcesr/qchem/qc44/cnl_qc441/compile/cori/qc_src/stvman/mkSTV.C, line 257:

 Overlap eigenvalue is smaller than square root of threshold

 Guess MOs from SCF MO coefficient file
 Reading MOs from coefficient file
 Reading MOs from coefficient file
 A restricted hybrid HF-DFT SCF calculation will be
 performed using Pulay DIIS extrapolation
 Exchange:     0.2000 Hartree-Fock + 0.0800 Slater + 0.7200 B88
 Correlation:  0.1900 VWN1RPA + 0.8100 LYP
 Using SG-1 standard quadrature grid
 SCF converges when DIIS error is below 1.0E-08
 Geometry optimization detected.  Setting ReadMinima to 0
 Setting SaveMinima to 0
 ---------------------------------------
  Cycle       Energy         DIIS Error
 ---------------------------------------
    1   -1104.8403391265      1.73E-04
    2   -1104.8392489762      3.42E-05
    3   -1104.8392155647      7.48E-05
    4   -1104.8392581396      6.47E-06
    5   -1104.8392584199      2.04E-06
    6   -1104.8392584460      4.58E-07
    7   -1104.8392584466      1.68E-07
    8   -1104.8392584495      6.08E-08
    9   -1104.8392584483      1.61E-08
   10   -1104.8392584486      7.29E-09 Convergence criterion met
 ---------------------------------------
 SCF time:  CPU 5.32 s  wall 4.63 s
 SCF   energy in the final basis set = -1104.8392584486
 Total energy in the final basis set = -1104.8392584486
 
 --------------------------------------------------------------
             Orbital Energies (a.u.) and Symmetries
 --------------------------------------------------------------
 
 Alpha MOs, Restricted
 -- Occupied --                  
-88.920 -88.920 -10.237 -10.237 -10.225 -10.225 -10.204 -10.204
  1 B     1 A     2 A     2 B     3 B     3 A     4 B     4 A                  
-10.203 -10.203  -7.979  -7.979  -5.943  -5.943  -5.939  -5.939
  5 B     5 A     6 B     6 A     7 B     7 A     8 B     8 A                  
 -5.936  -5.936  -0.899  -0.878  -0.770  -0.746  -0.738  -0.705
  9 A     9 B    10 A    10 B    11 A    12 A    11 B    12 B                  
 -0.602  -0.574  -0.558  -0.534  -0.524  -0.477  -0.419  -0.416
 13 A    14 A    13 B    14 B    15 A    15 B    16 A    17 A                  
 -0.411  -0.404  -0.397  -0.376  -0.374  -0.355  -0.348  -0.268
 16 B    17 B    18 A    18 B    19 A    20 A    19 B    20 B                  
 -0.262  -0.260  -0.222
 21 A    21 B    22 A                                                          
 -- Virtual --                   
 -0.049  -0.017  -0.006  -0.001   0.004   0.016   0.017   0.026
 22 B    23 A    24 A    23 B    25 A    24 B    26 A    27 A                  
  0.029   0.034   0.037   0.043   0.047   0.050   0.058   0.067
 25 B    26 B    28 A    27 B    29 A    28 B    30 A    29 B                  
  0.071   0.075   0.092   0.095   0.101   0.103   0.106   0.114
 31 A    30 B    32 A    31 B    32 B    33 A    34 A    35 A                  
  0.114   0.121   0.124   0.132   0.134   0.135   0.140   0.144
 33 B    34 B    36 A    37 A    35 B    36 B    38 A    39 A                  
  0.147   0.152   0.153   0.161   0.169   0.174   0.175   0.183
 37 B    38 B    40 A    39 B    41 A    42 A    40 B    43 A                  
  0.184   0.189   0.196   0.202   0.211   0.220   0.226   0.231
 41 B    42 B    44 A    43 B    44 B    45 A    45 B    46 A                  
  0.240   0.246   0.262   0.264   0.271   0.273   0.299   0.309
 46 B    47 B    48 B    47 A    48 A    49 A    49 B    50 A                  
  0.313   0.316   0.318   0.330   0.355   0.365   0.371   0.394
 50 B    51 A    51 B    52 A    53 A    52 B    53 B    54 A                  
  0.436   0.455   0.470   0.501   0.526   0.529   0.552   0.568
 54 B    55 A    56 A    55 B    57 A    56 B    57 B    58 B                  
  0.569   0.605   0.612   0.635   0.654   0.656   0.670   0.673
 58 A    59 A    59 B    60 A    61 A    60 B    61 B    62 A                  
  0.700   0.703   0.722   0.727   0.738   0.746   0.749   0.753
 63 A    62 B    64 A    63 B    64 B    65 A    65 B    66 A                  
  0.789   0.798   0.812   0.826   0.846   0.893   0.905   0.948
 66 B    67 A    67 B    68 A    68 B    69 A    69 B    70 A                  
  0.952   0.953   0.956   0.969   0.971   0.992   0.999   1.012
 70 B    71 A    71 B    72 A    72 B    73 A    73 B    74 A                  
  1.017   1.044   1.054   1.064   1.081   1.092   1.100   1.109
 74 B    75 B    75 A    76 B    76 A    77 A    77 B    78 A                  
  1.127   1.179   1.194   1.223   1.237   1.277   1.327   1.347
 78 B    79 A    80 A    79 B    80 B    81 A    81 B    82 A                  
  1.354   1.360   1.363   1.391   1.449   1.460   1.491   1.545
 82 B    83 A    83 B    84 A    84 B    85 B    85 A    86 A                  
  1.575   1.688   1.693   1.763   1.785   1.878   1.887   1.891
 86 B    87 B    87 A    88 B    88 A    89 A    89 B    90 A                  
  1.909   1.927   1.933   1.967   2.017   2.023   2.068   2.072
 90 B    91 A    92 A    91 B    92 B    93 A    93 B    94 A                  
  2.136   2.162   2.180   2.210   2.226   2.242   2.258   2.308
 95 A    94 B    95 B    96 A    96 B    97 A    97 B    98 A                  
  2.366   2.369   2.431   2.449   2.455   2.472   2.493   2.514
 99 A    98 B    99 B   100 A   101 A   100 B   101 B   102 B                  
  2.514   2.539   2.581   2.591   2.604   2.654   2.692   2.712
102 A   103 A   104 A   103 B   105 A   104 B   105 B   106 A                  
  2.772   2.790   2.867   2.894   2.945   3.146   3.196   3.270
106 B   107 A   108 A   107 B   108 B   109 A   109 B   110 B                  
  3.271   3.404   3.425   3.717   3.746   3.955   3.989   4.267
110 A   111 A   111 B   112 A   112 B   113 A   113 B   114 A                  
  4.312   4.322   4.330   4.416   4.536   4.655   4.716
115 A   114 B   115 B   116 A   116 B   117 A   117 B                          
 
 Beta MOs, Restricted
 -- Occupied --                  
-88.920 -88.920 -10.237 -10.237 -10.225 -10.225 -10.204 -10.204
  1 B     1 A     2 A     2 B     3 B     3 A     4 B     4 A                  
-10.203 -10.203  -7.979  -7.979  -5.943  -5.943  -5.939  -5.939
  5 B     5 A     6 B     6 A     7 B     7 A     8 B     8 A                  
 -5.936  -5.936  -0.899  -0.878  -0.770  -0.746  -0.738  -0.705
  9 A     9 B    10 A    10 B    11 A    12 A    11 B    12 B                  
 -0.602  -0.574  -0.558  -0.534  -0.524  -0.477  -0.419  -0.416
 13 A    14 A    13 B    14 B    15 A    15 B    16 A    17 A                  
 -0.411  -0.404  -0.397  -0.376  -0.374  -0.355  -0.348  -0.268
 16 B    17 B    18 A    18 B    19 A    20 A    19 B    20 B                  
 -0.262  -0.260  -0.222
 21 A    21 B    22 A                                                          
 -- Virtual --                   
 -0.049  -0.017  -0.006  -0.001   0.004   0.016   0.017   0.026
 22 B    23 A    24 A    23 B    25 A    24 B    26 A    27 A                  
  0.029   0.034   0.037   0.043   0.047   0.050   0.058   0.067
 25 B    26 B    28 A    27 B    29 A    28 B    30 A    29 B                  
  0.071   0.075   0.092   0.095   0.101   0.103   0.106   0.114
 31 A    30 B    32 A    31 B    32 B    33 A    34 A    35 A                  
  0.114   0.121   0.124   0.132   0.134   0.135   0.140   0.144
 33 B    34 B    36 A    37 A    35 B    36 B    38 A    39 A                  
  0.147   0.152   0.153   0.161   0.169   0.174   0.175   0.183
 37 B    38 B    40 A    39 B    41 A    42 A    40 B    43 A                  
  0.184   0.189   0.196   0.202   0.211   0.220   0.226   0.231
 41 B    42 B    44 A    43 B    44 B    45 A    45 B    46 A                  
  0.240   0.246   0.262   0.264   0.271   0.273   0.299   0.309
 46 B    47 B    48 B    47 A    48 A    49 A    49 B    50 A                  
  0.313   0.316   0.318   0.330   0.355   0.365   0.371   0.394
 50 B    51 A    51 B    52 A    53 A    52 B    53 B    54 A                  
  0.436   0.455   0.470   0.501   0.526   0.529   0.552   0.568
 54 B    55 A    56 A    55 B    57 A    56 B    57 B    58 B                  
  0.569   0.605   0.612   0.635   0.654   0.656   0.670   0.673
 58 A    59 A    59 B    60 A    61 A    60 B    61 B    62 A                  
  0.700   0.703   0.722   0.727   0.738   0.746   0.749   0.753
 63 A    62 B    64 A    63 B    64 B    65 A    65 B    66 A                  
  0.789   0.798   0.812   0.826   0.846   0.893   0.905   0.948
 66 B    67 A    67 B    68 A    68 B    69 A    69 B    70 A                  
  0.952   0.953   0.956   0.969   0.971   0.992   0.999   1.012
 70 B    71 A    71 B    72 A    72 B    73 A    73 B    74 A                  
  1.017   1.044   1.054   1.064   1.081   1.092   1.100   1.109
 74 B    75 B    75 A    76 B    76 A    77 A    77 B    78 A                  
  1.127   1.179   1.194   1.223   1.237   1.277   1.327   1.347
 78 B    79 A    80 A    79 B    80 B    81 A    81 B    82 A                  
  1.354   1.360   1.363   1.391   1.449   1.460   1.491   1.545
 82 B    83 A    83 B    84 A    84 B    85 B    85 A    86 A                  
  1.575   1.688   1.693   1.763   1.785   1.878   1.887   1.891
[...]
  3.271   3.404   3.425   3.717   3.746   3.955   3.989   4.267
110 A   111 A   111 B   112 A   112 B   113 A   113 B   114 A                  
  4.312   4.322   4.330   4.417   4.537   4.655   4.716
115 A   114 B   115 B   116 A   116 B   117 A   117 B                          
 --------------------------------------------------------------
 
          Ground-State Mulliken Net Atomic Charges

     Atom                 Charge (a.u.)
  ----------------------------------------
      1 S                     0.006671
      2 C                    -0.055307
      3 C                    -0.414106
      4 C                     0.283604
      5 C                    -0.269702
      6 H                     0.144742
      7 C                    -0.269702
      8 S                     0.006671
      9 C                     0.283604
     10 C                    -0.055307
     11 C                    -0.414106
     12 H                     0.116408
     13 H                     0.187690
     14 H                     0.116408
     15 H                     0.187690
     16 H                     0.144742
  ----------------------------------------
  Sum of atomic charges =     0.000000

 -----------------------------------------------------------------
                    Cartesian Multipole Moments
 -----------------------------------------------------------------
    Charge (ESU x 10^10)
                 0.0000
    Dipole Moment (Debye)
         X      -0.0000      Y      -0.0000      Z      -0.9309
       Tot       0.9309
    Quadrupole Moments (Debye-Ang)
        XX     -60.9971     XY      -1.0197     YY     -76.8506
        XZ      -0.0000     YZ       0.0000     ZZ     -69.6138
    Octopole Moments (Debye-Ang^2)
       XXX      -0.0000    XXY      -0.0000    XYY      -0.0000
       YYY      -0.0000    XXZ       5.2610    XYZ      11.0510
       YYZ      -0.7564    XZZ      -0.0000    YZZ      -0.0000
       ZZZ      -6.8538
    Hexadecapole Moments (Debye-Ang^3)
      XXXX   -1882.2470   XXXY      -2.8463   XXYY    -420.9658
      XYYY       3.8105   YYYY    -197.9158   XXXZ      -0.0000
      XXYZ      -0.0000   XYYZ      -0.0000   YYYZ       0.0000
      XXZZ    -410.4569   XYZZ     -10.4536   YYZZ    -112.3110
      XZZZ      -0.0000   YZZZ       0.0000   ZZZZ    -491.7183
 -----------------------------------------------------------------
 Calculating analytic gradient of the SCF energy
 Gradient of SCF Energy
            1           2           3           4           5           6
    1   0.0000319  -0.0000611   0.0000587  -0.0001072   0.0001395  -0.0000063
    2   0.0000390   0.0000416   0.0000541  -0.0013946   0.0028170   0.0000270
    3   0.0000016  -0.0000313  -0.0000032   0.0006630  -0.0006339  -0.0000040
            7           8           9          10          11          12
    1  -0.0001395  -0.0000319   0.0001072   0.0000611  -0.0000587   0.0000091
    2  -0.0028170  -0.0000390   0.0013946  -0.0000416  -0.0000541   0.0000103
    3  -0.0006339   0.0000016   0.0006630  -0.0000313  -0.0000032   0.0000171
           13          14          15          16
    1   0.0000024  -0.0000091  -0.0000024   0.0000063
    2  -0.0000203  -0.0000103   0.0000203  -0.0000270
    3  -0.0000094   0.0000171  -0.0000094  -0.0000040
 Max gradient component =       2.817E-03
 RMS gradient           =       6.699E-04
 Gradient time:  CPU 1.89 s  wall 1.89 s
 Geometry Optimization Parameters
   NAtoms,    NIC,     NZ,  NCons,   NDum,   NFix, NCnnct, MaxDiis
       16     111       0       1       0       0       0       0

 Cartesian Hessian Update
 Hessian Updated using BFGS Update


** CONSTRAINED OPTIMIZATION IN DELOCALIZED INTERNAL COORDINATES **
   Searching for a Minimum

   Optimization Cycle:   5

                       Coordinates (Angstroms)
     ATOM                X               Y               Z
      1  S         1.6868659897    0.5397528783    1.0645066893
      2  C         3.1659686773    0.0991747718    0.2746154610
      3  C         2.9365097010   -0.4494346797   -0.9599288725
      4  C         1.5483889041   -0.5343954935   -1.2767051146
      5  C         0.7285618517   -0.0343805026   -0.2884849017
      6  H         1.1582478954   -0.9674379586   -2.1906851944
      7  C        -0.7285618517    0.0343805026   -0.2884849017
      8  S        -1.6868659897   -0.5397528783    1.0645066893
      9  C        -1.5483889041    0.5343954935   -1.2767051146
     10  C        -3.1659686773   -0.0991747718    0.2746154610
     11  C        -2.9365097010    0.4494346797   -0.9599288725
     12  H        -3.7279415196    0.7952407257   -1.6151574529
     13  H         4.1135311562    0.2688007606    0.7676254768
     14  H         3.7279415196   -0.7952407257   -1.6151574529
     15  H        -4.1135311562   -0.2688007606    0.7676254768
     16  H        -1.1582478954    0.9674379586   -2.1906851944
   Point Group: c2    Number of degrees of freedom:    22


   Energy is  -1104.839259324

              Constraints and their Current Values
                                        Value     Constraint
   Dihedral:        4   5   7   9      -50.000      -50.000
 Hessian Updated using BFGS Update

 21 Hessian modes will be used to form the next step
  Hessian Eigenvalues:
     0.017019    0.042598    0.045000    0.045003    0.045144    0.045362
     0.145394    0.158822    0.160285    0.182455    0.221329    0.274702
     0.295473    0.316203    0.357263    0.359901    0.363029    0.391753
     0.467820    0.487788    0.543619

 Minimum Search - Taking Simple RFO Step
 Searching for Lamda that Minimizes Along All modes
 Value Taken    Lamda =   0.00000000
 Step Taken.  Stepsize is  0.006279

                             Maximum     Tolerance    Cnvgd?
         Gradient           0.000139      0.000300     YES
         Displacement       0.004036      0.001200      NO
         Energy change     -0.000001      0.000001     YES

 Final energy is   -1104.83925932437     


 ******************************
 **  OPTIMIZATION CONVERGED  **
 ******************************

                       Coordinates (Angstroms)
     ATOM                X               Y               Z
      1  S         1.6868659897    0.5397528783    1.0645066893
      2  C         3.1659686773    0.0991747718    0.2746154610
      3  C         2.9365097010   -0.4494346797   -0.9599288725
      4  C         1.5483889041   -0.5343954935   -1.2767051146
      5  C         0.7285618517   -0.0343805026   -0.2884849017
      6  H         1.1582478954   -0.9674379586   -2.1906851944
      7  C        -0.7285618517    0.0343805026   -0.2884849017
      8  S        -1.6868659897   -0.5397528783    1.0645066893
      9  C        -1.5483889041    0.5343954935   -1.2767051146
     10  C        -3.1659686773   -0.0991747718    0.2746154610
     11  C        -2.9365097010    0.4494346797   -0.9599288725
     12  H        -3.7279415196    0.7952407257   -1.6151574529
     13  H         4.1135311562    0.2688007606    0.7676254768
     14  H         3.7279415196   -0.7952407257   -1.6151574529
     15  H        -4.1135311562   -0.2688007606    0.7676254768
     16  H        -1.1582478954    0.9674379586   -2.1906851944

Z-matrix Print:
$molecule
0 1
S 
C  1 1.733719
H  2 1.081530 1 119.994710
C  2 1.370301 1 111.675455 3 -179.871558 0
H  4 1.084099 2 123.365733 1 179.750923 0
C  4 1.426340 2 112.761743 1 0.689700 0
H  6 1.084018 4 124.146282 2 177.898360 0
C  6 1.377937 4 113.461499 2 -0.773251 0
C  8 1.458745 6 127.691552 4 -179.897485 0
C  9 1.377937 8 127.691552 6 50.000026 0
H  10 1.084018 9 122.378376 8 1.404281 0
C  10 1.426340 9 113.461499 8 -179.897485 0
H  12 1.084099 10 123.865390 9 -179.829015 0
C  12 1.370301 10 112.761743 9 -0.773251 0
H  14 1.081530 12 128.329687 10 -179.168494 0
S  14 1.733719 12 111.675455 10 0.689700 0
$end

 
 --------------------------------------------------------------
             Orbital Energies (a.u.) and Symmetries
 --------------------------------------------------------------
 
 Alpha MOs, Restricted
 -- Occupied --                  
-88.920 -88.920 -10.237 -10.237 -10.225 -10.225 -10.204 -10.204
  1 B     1 A     2 A     2 B     3 B     3 A     4 B     4 A                  
-10.203 -10.203  -7.979  -7.979  -5.943  -5.943  -5.939  -5.939
  5 B     5 A     6 B     6 A     7 B     7 A     8 B     8 A                  
 -5.936  -5.936  -0.899  -0.878  -0.770  -0.746  -0.738  -0.705
  9 A     9 B    10 A    10 B    11 A    12 A    11 B    12 B                  
 -0.602  -0.574  -0.558  -0.534  -0.524  -0.477  -0.419  -0.416
 13 A    14 A    13 B    14 B    15 A    15 B    16 A    17 A                  
 -0.411  -0.404  -0.397  -0.376  -0.374  -0.355  -0.348  -0.268
 16 B    17 B    18 A    18 B    19 A    20 A    19 B    20 B                  
 -0.262  -0.260  -0.222
 21 A    21 B    22 A                                                          
 -- Virtual --                   
 -0.049  -0.017  -0.006  -0.001   0.004   0.016   0.017   0.026
 22 B    23 A    24 A    23 B    25 A    24 B    26 A    27 A                  
  0.029   0.034   0.037   0.043   0.047   0.050   0.058   0.067
 25 B    26 B    28 A    27 B    29 A    28 B    30 A    29 B                  
  0.071   0.075   0.092   0.095   0.101   0.103   0.106   0.114
 31 A    30 B    32 A    31 B    32 B    33 A    34 A    35 A                  
  0.114   0.121   0.124   0.132   0.134   0.136   0.140   0.144
 33 B    34 B    36 A    37 A    35 B    36 B    38 A    39 A                  
  0.147   0.152   0.153   0.161   0.169   0.174   0.175   0.183
 37 B    38 B    40 A    39 B    41 A    42 A    40 B    43 A                  
  0.184   0.189   0.196   0.202   0.211   0.220   0.226   0.231
 41 B    42 B    44 A    43 B    44 B    45 A    45 B    46 A                  
  0.241   0.246   0.262   0.264   0.271   0.273   0.299   0.309
 46 B    47 B    48 B    47 A    48 A    49 A    49 B    50 A                  
  0.313   0.316   0.318   0.330   0.355   0.365   0.371   0.394
 50 B    51 A    51 B    52 A    53 A    52 B    53 B    54 A                  
  0.436   0.455   0.470   0.501   0.526   0.530   0.552   0.568
 54 B    55 A    56 A    55 B    57 A    56 B    57 B    58 B                  
  0.569   0.605   0.612   0.635   0.654   0.657   0.670   0.673
 58 A    59 A    59 B    60 A    61 A    60 B    61 B    62 A                  
  0.700   0.703   0.722   0.727   0.738   0.746   0.749   0.753
 63 A    62 B    64 A    63 B    64 B    65 A    65 B    66 A                  
  0.789   0.798   0.812   0.826   0.846   0.893   0.905   0.948
 66 B    67 A    67 B    68 A    68 B    69 A    69 B    70 A                  
  0.952   0.953   0.956   0.969   0.971   0.992   0.999   1.012
 70 B    71 A    71 B    72 A    72 B    73 A    73 B    74 A                  
  1.017   1.044   1.054   1.064   1.081   1.092   1.100   1.109
 74 B    75 B    75 A    76 B    76 A    77 A    77 B    78 A                  
  1.127   1.179   1.194   1.223   1.237   1.277   1.327   1.346
 78 B    79 A    80 A    79 B    80 B    81 A    81 B    82 A                  
  1.354   1.360   1.363   1.391   1.449   1.460   1.491   1.545
 82 B    83 A    83 B    84 A    84 B    85 B    85 A    86 A                  
  1.575   1.687   1.693   1.762   1.785   1.878   1.887   1.891
 86 B    87 B    87 A    88 B    88 A    89 A    89 B    90 A                  
  1.909   1.927   1.934   1.967   2.017   2.023   2.068   2.072
 90 B    91 A    92 A    91 B    92 B    93 A    93 B    94 A                  
  2.136   2.162   2.180   2.210   2.226   2.242   2.258   2.308
 95 A    94 B    95 B    96 A    96 B    97 A    97 B    98 A                  
  2.366   2.369   2.432   2.449   2.455   2.472   2.493   2.514
 99 A    98 B    99 B   100 A   101 A   100 B   101 B   102 B                  
  2.514   2.539   2.581   2.591   2.604   2.654   2.692   2.713
102 A   103 A   104 A   103 B   105 A   104 B   105 B   106 A                  
  2.772   2.790   2.866   2.894   2.945   3.147   3.196   3.270
106 B   107 A   108 A   107 B   108 B   109 A   109 B   110 B                  
  3.271   3.404   3.425   3.717   3.746   3.955   3.989   4.267
110 A   111 A   111 B   112 A   112 B   113 A   113 B   114 A                  
  4.312   4.322   4.330   4.417   4.537   4.655   4.716
115 A   114 B   115 B   116 A   116 B   117 A   117 B                          
 
 Beta MOs, Restricted
 -- Occupied --                  
-88.920 -88.920 -10.237 -10.237 -10.225 -10.225 -10.204 -10.204
  1 B     1 A     2 A     2 B     3 B     3 A     4 B     4 A                  
-10.203 -10.203  -7.979  -7.979  -5.943  -5.943  -5.939  -5.939
  5 B     5 A     6 B     6 A     7 B     7 A     8 B     8 A                  
 -5.936  -5.936  -0.899  -0.878  -0.770  -0.746  -0.738  -0.705
  9 A     9 B    10 A    10 B    11 A    12 A    11 B    12 B                  
 -0.602  -0.574  -0.558  -0.534  -0.524  -0.477  -0.419  -0.416
 13 A    14 A    13 B    14 B    15 A    15 B    16 A    17 A                  
 -0.411  -0.404  -0.397  -0.376  -0.374  -0.355  -0.348  -0.268
 16 B    17 B    18 A    18 B    19 A    20 A    19 B    20 B                  
 -0.262  -0.260  -0.222
 21 A    21 B    22 A                                                          
 -- Virtual --                   
 -0.049  -0.017  -0.006  -0.001   0.004   0.016   0.017   0.026
 22 B    23 A    24 A    23 B    25 A    24 B    26 A    27 A                  
  0.029   0.034   0.037   0.043   0.047   0.050   0.058   0.067
 25 B    26 B    28 A    27 B    29 A    28 B    30 A    29 B                  
  0.071   0.075   0.092   0.095   0.101   0.103   0.106   0.114
 31 A    30 B    32 A    31 B    32 B    33 A    34 A    35 A                  
  0.114   0.121   0.124   0.132   0.134   0.136   0.140   0.144
 33 B    34 B    36 A    37 A    35 B    36 B    38 A    39 A                  
  0.147   0.152   0.153   0.161   0.169   0.174   0.175   0.183
 37 B    38 B    40 A    39 B    41 A    42 A    40 B    43 A                  
  0.184   0.189   0.196   0.202   0.211   0.220   0.226   0.231
 41 B    42 B    44 A    43 B    44 B    45 A    45 B    46 A                  
  0.241   0.246   0.262   0.264   0.271   0.273   0.299   0.309
 46 B    47 B    48 B    47 A    48 A    49 A    49 B    50 A                  
  0.313   0.316   0.318   0.330   0.355   0.365   0.371   0.394
 50 B    51 A    51 B    52 A    53 A    52 B    53 B    54 A                  
  0.436   0.455   0.470   0.501   0.526   0.530   0.552   0.568
 54 B    55 A    56 A    55 B    57 A    56 B    57 B    58 B                  
  0.569   0.605   0.612   0.635   0.654   0.657   0.670   0.673
 58 A    59 A    59 B    60 A    61 A    60 B    61 B    62 A                  
  0.700   0.703   0.722   0.727   0.738   0.746   0.749   0.753
 63 A    62 B    64 A    63 B    64 B    65 A    65 B    66 A                  
  0.789   0.798   0.812   0.826   0.846   0.893   0.905   0.948
 66 B    67 A    67 B    68 A    68 B    69 A    69 B    70 A                  
  0.952   0.953   0.956   0.969   0.971   0.992   0.999   1.012
 70 B    71 A    71 B    72 A    72 B    73 A    73 B    74 A                  
  1.017   1.044   1.054   1.064   1.081   1.092   1.100   1.109
 74 B    75 B    75 A    76 B    76 A    77 A    77 B    78 A                  
  1.127   1.179   1.194   1.223   1.237   1.277   1.327   1.346
 78 B    79 A    80 A    79 B    80 B    81 A    81 B    82 A                  
  1.354   1.360   1.363   1.391   1.449   1.460   1.491   1.545
 82 B    83 A    83 B    84 A    84 B    85 B    85 A    86 A                  
  1.575   1.687   1.693   1.762   1.785   1.878   1.887   1.891
 86 B    87 B    87 A    88 B    88 A    89 A    89 B    90 A                  
  1.909   1.927   1.934   1.967   2.017   2.023   2.068   2.072
 90 B    91 A    92 A    91 B    92 B    93 A    93 B    94 A                  
  2.136   2.162   2.180   2.210   2.226   2.242   2.258   2.308
 95 A    94 B    95 B    96 A    96 B    97 A    97 B    98 A                  
  2.366   2.369   2.432   2.449   2.455   2.472   2.493   2.514
 99 A    98 B    99 B   100 A   101 A   100 B   101 B   102 B                  
  2.514   2.539   2.581   2.591   2.604   2.654   2.692   2.713
102 A   103 A   104 A   103 B   105 A   104 B   105 B   106 A                  
  2.772   2.790   2.866   2.894   2.945   3.147   3.196   3.270
106 B   107 A   108 A   107 B   108 B   109 A   109 B   110 B                  
  3.271   3.404   3.425   3.717   3.746   3.955   3.989   4.267
110 A   111 A   111 B   112 A   112 B   113 A   113 B   114 A                  
  4.312   4.322   4.330   4.417   4.537   4.655   4.716
115 A   114 B   115 B   116 A   116 B   117 A   117 B                          
 --------------------------------------------------------------
 
          Ground-State Mulliken Net Atomic Charges

     Atom                 Charge (a.u.)
  ----------------------------------------
      1 S                     0.006671
      2 C                    -0.055307
      3 C                    -0.414106
      4 C                     0.283604
      5 C                    -0.269702
      6 H                     0.144742
      7 C                    -0.269702
      8 S                     0.006671
      9 C                     0.283604
     10 C                    -0.055307
     11 C                    -0.414106
     12 H                     0.116408
     13 H                     0.187690
     14 H                     0.116408
     15 H                     0.187690
     16 H                     0.144742
  ----------------------------------------
  Sum of atomic charges =     0.000000

 -----------------------------------------------------------------
                    Cartesian Multipole Moments
 -----------------------------------------------------------------
    Charge (ESU x 10^10)
                 0.0000
    Dipole Moment (Debye)
         X      -0.0000      Y      -0.0000      Z      -0.9309
       Tot       0.9309
    Quadrupole Moments (Debye-Ang)
        XX     -60.9971     XY      -1.0197     YY     -76.8506
        XZ      -0.0000     YZ       0.0000     ZZ     -69.6138
    Octopole Moments (Debye-Ang^2)
       XXX      -0.0000    XXY      -0.0000    XYY      -0.0000
       YYY      -0.0000    XXZ       5.2610    XYZ      11.0510
       YYZ      -0.7564    XZZ      -0.0000    YZZ      -0.0000
       ZZZ      -6.8538
    Hexadecapole Moments (Debye-Ang^3)
      XXXX   -1882.2470   XXXY      -2.8463   XXYY    -420.9658
      XYYY       3.8105   YYYY    -197.9158   XXXZ      -0.0000
      XXYZ      -0.0000   XYYZ      -0.0000   YYYZ       0.0000
      XXZZ    -410.4569   XYZZ     -10.4536   YYZZ    -112.3110
      XZZZ      -0.0000   YZZZ       0.0000   ZZZZ    -491.7183
 -----------------------------------------------------------------
Archival summary:
1\1\nid01043\OPT\ProcedureUnspecified\BasisUnspecified\286\FriSep218:23:162016FriSep218:23:162016\0\\#,OPT,ProcedureUnspecified,BasisUnspecified,\\0,1\S\C,1,1.73372\H,2,1.08153,1,119.995\C,2,1.3703,1,111.675,3,-179.872,0\H,4,1.0841,2,123.366,1,179.751,0\C,4,1.42634,2,112.762,1,0.6897,0\H,6,1.08402,4,124.146,2,177.898,0\C,6,1.37794,4,113.461,2,-0.773251,0\C,8,1.45875,6,127.692,4,-179.897,0\C,9,1.37794,8,127.692,6,50,0\H,10,1.08402,9,122.378,8,1.40428,0\C,10,1.42634,9,113.461,8,-179.897,0\H,12,1.0841,10,123.865,9,-179.829,0\C,12,1.3703,10,112.762,9,-0.773251,0\H,14,1.08153,12,128.33,10,-179.168,0\S,14,1.73372,12,111.675,10,0.6897,0\\\@

 Total job time:  88.03s(wall), 102.02s(cpu) 
 Fri Sep  2 18:23:16 2016

        *************************************************************
        *                                                           *
        *  Thank you very much for using Q-Chem.  Have a nice day.  *
        *                                                           *
        *************************************************************


0 sent ACK to 0 
now end server 0 ... 
