srun -N 1 --ntasks-per-node 16 --nodelist nid01043 /global/project/projectdirs/jcesr/qchem/qc44/cnl_qc441/dist/exe/qcprog.cori.exe .pt_dft_-20.0.in.53790.qcin.1 /dev/shm/eg_qchem/qchem53790/
Process 0 of 16 is on nid01043 - thread support 0
Process 1 of 16 is on nid01043 - thread support 0
Process 2 of 16 is on nid01043 - thread support 0
Process 3 of 16 is on nid01043 - thread support 0
Process 4 of 16 is on nid01043 - thread support 0
Process 5 of 16 is on nid01043 - thread support 0
Process 6 of 16 is on nid01043 - thread support 0
Process 15 of 16 is on nid01043 - thread support 0
initial socket setup ...start
initial socket setup ...done 
now start server 0 ... 
nid01043 10.128.4
Q-Chem Developer Version! Running on 10.128.4.*
                  Welcome to Q-Chem
     A Quantum Leap Into The Future Of Chemistry


 Q-Chem 4.4, Q-Chem, Inc., Pleasanton, CA (2016)

 Y. Shao,  Z. Gan,  E. Epifanovsky,  A. T. B. Gilbert,  M. Wormit,  
 J. Kussmann,  A. W. Lange,  A. Behn,  J. Deng,  X. Feng,  D. Ghosh,  
 M. Goldey,  P. R. Horn,  L. D. Jacobson,  I. Kaliman,  F.Rob,  
 R. Z. Khaliullin,  T. Kus,  A. Landau,  J. Liu,  E. I. Proynov,  Y. M. Rhee,  
 R. M. Richard,  M. A. Rohrdanz,  R. P. Steele,  E. J. Sundstrom,  
 H. L. Woodcock III,  P. M. Zimmerman,  D. Zuev,  B. Albrecht,  E. Alguire,  
 B. Austin,  S. A. Baeppler,  G. J. O. Beran,  Y. A. Bernard,  E. Berquist,  
 K. Brandhorst,  K. B. Bravaya,  S. T. Brown,  D. Casanova,  C.-M. Chang,  
 Y. Chen,  S. H. Chien,  K. D. Closser,  M. P. Coons,  D. L. Crittenden,  
 S. Dasgupta,  M. Diedenhofen,  R. A. DiStasio Jr.,  H. Do,  A. D. Dutoi,  
 R. G. Edgar,  P.-T. Fang,  S. Fatehi,  Q. Feng,  L. Fusti-Molnar,  
 A. Ghysels,  A. Golubeva-Zadorozhnaya,  J. Gomes,  A. Gunina,  
 M. W. D. Hanson-Heine,  P. H. P. Harbach,  A. W. Hauser,  E. G. Hohenstein,  
 Z. C. Holden,  K. Hui,  T.-C. Jagau,  H. Ji,  B. Kaduk,  K. Khistyaev,  
 Jaehoon Kim,  Jihan Kim,  R. A. King,  P. Klunzinger,  D. Kosenkov,  
 T. Kowalczyk,  C. M. Krauter,  A. Kunitsa,  K. U. Lao,  A. Laurent,  
 K. V. Lawler,  D. Lefrancois,  S. Lehtola,  S. V. Levchenko,  C. Y. Lin,  
 Y.-S. Lin,  F. Liu,  E. Livshits,  R. C. Lochan,  A. Luenser,  P. Manohar,  
 S. F. Manzer,  S.-P. Mao,  Y. Mao,  N. Mardirossian,  A. V. Marenich,  
 L. A. Martinez-Martinez,  S. A. Maurer,  N. J. Mayhall,  J.-M. Mewes,  
 A. F. Morrison,  K. Nanda,  C. M. Oana,  R. Olivares-Amaya,  D. P. O'Neill,  
 J. A. Parkhill,  T. M. Perrine,  R. Peverati,  P. A. Pieniazek,  F. Plasser,  
 A. Prociuk,  D. R. Rehn,  E. Rosta,  N. J. Russ,  N. Sergueev,  
 S. M. Sharada,  S. Sharma,  D. W. Small,  A. Sodt,  T. Stauch,  T. Stein,  
 D. Stuck,  Y.-C. Su,  A. J. W. Thom,  T. Tsuchimochi,  L. Vogt,  O. Vydrov,  
 T. Wang,  M. A. Watson,  J. Wenzel,  A. White,  C. F. Williams,  
 V. Vanovschi,  S. Yeganeh,  S. R. Yost,  Z.-Q. You,  I. Y. Zhang,  X. Zhang,  
 Y. Zhao,  B. R. Brooks,  G. K. L. Chan,  D. M. Chipman,  C. J. Cramer,  
 W. A. Goddard III,  M. S. Gordon,  W. J. Hehre,  A. Klamt,  
 H. F. Schaefer III,  M. W. Schmidt,  C. D. Sherrill,  D. G. Truhlar,  
 A. Warshel,  X. Xu,  A. Aspuru-Guzik,  R. Baer,  A. T. Bell,  N. A. Besley,  
 J.-D. Chai,  A. Dreuw,  B. D. Dunietz,  T. R. Furlani,  S. R. Gwaltney,  
 C.-P. Hsu,  Y. Jung,  J. Kong,  D. S. Lambrecht,  W. Liang,  C. Ochsenfeld,  
 V. A. Rassolov,  L. V. Slipchenko,  J. E. Subotnik,  T. Van Voorhis,  
 J. M. Herbert,  A. I. Krylov,  P. M. W. Gill,  M. Head-Gordon

 Contributors to earlier versions of Q-Chem not listed above: 
 R. D. Adamson,  J. Baker,  E. F. C. Byrd,  A. K. Chakraborty,  C.-L. Cheng,  
 H. Dachsel,  R. J. Doerksen,  G. Hawkins,  A. Heyden,  S. Hirata,  
 G. Kedziora,  F. J. Keil,  C. Kelley,  P. P. Korambath,  W. Kurlancheek,  
 A. M. Lee,  M. S. Lee,  D. Liotard,  I. Lotan,  P. E. Maslen,  N. Nair,  
 D. Neuhauser,  R. Olson,  B. Peters,  J. Ritchie,  N. E. Schultz,  
 N. Shenvi,  A. C. Simmonett,  K. S. Thanthiriwatte,  Q. Wu,  W. Zhang

 Please cite Q-Chem as follows:
 Y. Shao et al., Mol. Phys. 113, 184-215 (2015)
 DOI: 10.1080/00268976.2014.952696

 Q-Chem 4.4.1 for Intel X86 EM64T Linux

 Parts of Q-Chem use Armadillo 5.200.1 (Boston Tea Smuggler).
 http://arma.sourceforge.net/

 Q-Chem begins on Fri Sep  2 18:27:18 2016  

Host: nid01043
0

     Scratch files written to /dev/shm/eg_qchem/qchem53790.0//
 Parallel job on  16  processors

Checking the input file for inconsistencies... 	...done.

--------------------------------------------------------------
User input:
--------------------------------------------------------------
$molecule
 0  1
 S           1.82267924       -1.19997629        0.28714109
 C           3.20006180       -0.17260711        0.06528466
 C           2.82980603        1.10216298       -0.25610036
 C           1.41909100        1.26345446       -0.34254814
 C           0.71738150        0.10901545       -0.08456145
 H           0.93627498        2.19419272       -0.61095402
 C          -0.71741859       -0.10899254       -0.08455524
 S          -1.37840052       -1.72421804       -0.25024931
 C          -1.73423106        0.81038563        0.02733242
 C          -3.00222539       -1.12965343       -0.14265658
 C          -3.03210824        0.22904661       -0.00679709
 H          -3.94854328        0.79812450        0.07693473
 H           4.19429620       -0.57452886        0.18632814
 H           3.53860725        1.89960515       -0.43610218
 H          -3.83047792       -1.82012346       -0.18674192
 H          -1.55381163        1.86983868        0.15553071
$end


$rem
         jobtype = opt
        exchange = b3lyp
           basis = 6-31++g**
  max_scf_cycles = 75
      mem_static = 100
       mem_total = 1500
$end


$opt
CONSTRAINT
tors 4 5 7 9 -20.0
ENDCONSTRAINT
$end

--------------------------------------------------------------
 Atom   8: ( -1.6270518267, -0.2352330551,  1.1310864585)
         ->( -1.6270519202, -0.2352329788,  1.1310865090)
 Atom  10: ( -3.1393340317, -0.0383108730,  0.3088245380)
         ->( -3.1393340356, -0.0383109608,  0.3088244180)
 Atom  11: ( -2.9600010436,  0.1871494097, -1.0262499635)
         ->( -2.9600009701,  0.1871491100, -1.0262500581)
 Atom   9: ( -1.5885560847,  0.2187930708, -1.4027369586)
         ->( -1.5885559895,  0.2187933495, -1.4027369281)
 Atom   7: ( -0.7254739668,  0.0152400879, -0.3513863472)
         ->( -0.7254739117,  0.0152400023, -0.3513862995)
 Atom  16: ( -1.2469339981,  0.4104442616, -2.4116923135)
         ->( -1.2469338412,  0.4104448359, -2.4116922045)
 Atom  14: (  3.7775938399, -0.3365361286, -1.7190265424)
         ->(  3.7775939566, -0.3365366101, -1.7190263620)
 Atom  15: ( -4.0634445392, -0.1016846902,  0.8626278987)
         ->( -4.0634446374, -0.1016848393,  0.8626276380)
 ----------------------------------------------------------------
             Standard Nuclear Orientation (Angstroms)
    I     Atom           X                Y                Z
 ----------------------------------------------------------------
    1      S       1.6270519202     0.2352329788     1.1310865090
    2      C       3.1393340356     0.0383109608     0.3088244180
    3      C       2.9600009701    -0.1871491100    -1.0262500581
    4      C       1.5885559895    -0.2187933495    -1.4027369281
    5      C       0.7254739117    -0.0152400023    -0.3513862995
    6      H       1.2469338412    -0.4104448359    -2.4116922045
    7      C      -0.7254739117     0.0152400023    -0.3513862995
    8      S      -1.6270519202    -0.2352329788     1.1310865090
    9      C      -1.5885559895     0.2187933495    -1.4027369281
   10      C      -3.1393340356    -0.0383109608     0.3088244180
   11      C      -2.9600009701     0.1871491100    -1.0262500581
   12      H      -3.7775939566     0.3365366101    -1.7190263620
   13      H       4.0634446374     0.1016848393     0.8626276380
   14      H       3.7775939566    -0.3365366101    -1.7190263620
   15      H      -4.0634446374    -0.1016848393     0.8626276380
   16      H      -1.2469338412     0.4104448359    -2.4116922045
 ----------------------------------------------------------------
 Molecular Point Group                 C2    NOp =  2
 Largest Abelian Subgroup              C2    NOp =  2
 Nuclear Repulsion Energy =   633.9158556005 hartrees
 There are       43 alpha and       43 beta electrons
 Requested basis set is 6-31++G(d,p)
 There are 76 shells and 234 basis functions

 Total QAlloc Memory Limit   1500 MB
 Mega-Array Size        98 MB
 MEM_STATIC part       100 MB
 A cutoff of  1.0D-11 yielded   2491 shell pairs
 There are     24603 function pairs
 
 -------------------------------------------------------
 OpenMP Integral Computing Module                       
 Release: version 1.0, May 2013, Q-Chem Inc. Pittsburgh 
 -------------------------------------------------------
 Integral Job Info:
 Integral job number is                      11
 Integral operator is                         1
 short-range coefficients                     0
 long-range coefficients              100000000
 Omega coefficients                           0
 if combine SR and LR in K                    0
 Integral screening is                        0
 Integral computing path is                   2
 max size of driver memory is            800000
 size of driver memory is                593474
 size of scratch memory is             15166112
 max col of scratch BK array               1296
 max len of scratch array in speh3          155
 max len of scratch index in speh4           18
 max int batch size is                      520
 min int batch size is                       52
 fixed nKL is                                52
 max L of basis functions is                  2
 order of int derivative is                   0
 number of shells is                         76
 number of basis is                         234
 number of cartesian basis is               234
 number of contracted shell pairs          2491
 number of primitive shell pairs           8065
 maxK2 (contraction) of shell pair           36
 max number of K2 of shell pair               1
 max number of CS2 of shell pair            256
 max number of PS2 of shell pair           1500
 mem total for path MDJ                   51992
 -------------------------------------------------------
 Smallest overlap matrix eigenvalue = 9.03E-07

 Q-Chem warning in module /project/projectdirs/jcesr/qchem/qc44/cnl_qc441/compile/cori/qc_src/stvman/mkSTV.C, line 257:

 Overlap eigenvalue is smaller than square root of threshold

 Linear dependence detected in AO basis
 Number of orthogonalized atomic orbitals = 233
 Maximum deviation from orthogonality = 3.156E-11

 Scale SEOQF with 1.000000e-01/1.000000e-01/1.000000e-01

 Standard Electronic Orientation quadrupole field applied
 Nucleus-field energy     =     0.0000000043 hartrees
 Guess from superposition of atomic densities
 Warning:  Energy on first SCF cycle will be non-variational
 A restricted hybrid HF-DFT SCF calculation will be
 performed using Pulay DIIS extrapolation
 Exchange:     0.2000 Hartree-Fock + 0.0800 Slater + 0.7200 B88
 Correlation:  0.1900 VWN1RPA + 0.8100 LYP
 Using SG-1 standard quadrature grid
 SCF converges when DIIS error is below 1.0E-08
 ---------------------------------------
  Cycle       Energy         DIIS Error
 ---------------------------------------
    1   -1107.2252047163      4.45E-02
    2   -1026.4334927883      1.04E-01
    3   -1149.6305488668      8.81E-02
    4   -1079.8685671691      7.74E-02
    5   -1085.1790081291      5.05E-02
    6   -1111.8301255171      1.59E-01
    7   -1125.6012566092      2.52E-01
    8   -1113.6161102593      1.33E-01
    9   -1113.3650762941      1.31E-01
   10   -1113.2731066331      1.33E-01
   11   -1115.5808623754      1.57E-01
   12   -1103.3103718449      1.33E-02
   13   -1104.5198449371      7.07E-03
   14   -1104.7756418085      3.27E-03
   15   -1104.8273992232      1.44E-03
   16   -1104.8254178256      1.34E-03
   17   -1104.8381334619      3.49E-04
   18   -1104.8389495953      1.26E-04
   19   -1104.8390585026      1.80E-05
   20   -1104.8390579211      5.73E-06
   21   -1104.8390578697      2.33E-06
   22   -1104.8390573486      3.96E-07
   23   -1104.8390563497      1.38E-07
   24   -1104.8390559089      4.79E-08
   25   -1104.8390571482      7.68E-08
   26   -1104.8390565310      2.39E-08
   27   -1104.8390560943      2.75E-08
   28   -1104.8390560224      2.40E-08
   29   -1104.8390561196      9.25E-09 Convergence criterion met
 ---------------------------------------
 SCF time:  CPU 12.50 s  wall 10.58 s
 SCF   energy in the final basis set = -1104.8390561196
 Total energy in the final basis set = -1104.8390561196
 
 --------------------------------------------------------------
             Orbital Energies (a.u.) and Symmetries
 --------------------------------------------------------------
 
 Alpha MOs, Restricted
 -- Occupied --                  
-88.919 -88.919 -10.238 -10.238 -10.224 -10.224 -10.204 -10.204
  1 B     1 A     2 A     2 B     3 B     3 A     4 A     4 B                  
-10.202 -10.202  -7.979  -7.979  -5.943  -5.943  -5.939  -5.939
  5 B     5 A     6 B     6 A     7 B     7 A     8 B     8 A                  
 -5.936  -5.936  -0.902  -0.879  -0.772  -0.750  -0.737  -0.706
  9 A     9 B    10 A    10 B    11 A    12 A    11 B    12 B                  
 -0.604  -0.580  -0.554  -0.534  -0.528  -0.477  -0.421  -0.419
 13 A    14 A    13 B    14 B    15 A    15 B    16 A    17 A                  
 -0.409  -0.404  -0.401  -0.376  -0.374  -0.359  -0.343  -0.282
 16 B    17 B    18 A    18 B    19 A    20 A    19 B    20 B                  
 -0.265  -0.258  -0.213
 21 B    21 A    22 A                                                          
 -- Virtual --                   
 -0.057  -0.014  -0.004  -0.000   0.005   0.014   0.019   0.027
 22 B    23 A    24 A    23 B    25 A    26 A    24 B    27 A                  
  0.028   0.037   0.039   0.046   0.049   0.060   0.063   0.070
 25 B    28 A    26 B    29 A    27 B    30 A    28 B    29 B                  
  0.075   0.084   0.088   0.095   0.102   0.104   0.107   0.112
 31 A    30 B    31 B    32 A    32 B    33 A    34 A    35 A                  
  0.116   0.123   0.127   0.130   0.137   0.139   0.142   0.144
 33 B    36 A    34 B    37 A    35 B    38 A    36 B    39 A                  
  0.147   0.154   0.161   0.162   0.168   0.178   0.183   0.186
 40 A    37 B    41 A    38 B    39 B    40 B    42 A    41 B                  
  0.187   0.194   0.194   0.208   0.213   0.221   0.221   0.242
 43 A    42 B    44 A    43 B    45 A    44 B    46 A    45 B                  
  0.246   0.260   0.264   0.268   0.272   0.283   0.304   0.310
 47 A    46 B    48 A    47 B    49 A    48 B    50 A    49 B                  
  0.312   0.319   0.328   0.350   0.361   0.376   0.384   0.421
 51 A    52 A    50 B    53 A    51 B    52 B    54 A    53 B                  
  0.450   0.467   0.494   0.533   0.540   0.555   0.567   0.569
 55 A    56 A    54 B    57 A    55 B    56 B    57 B    58 A                  
  0.598   0.622   0.631   0.654   0.661   0.671   0.673   0.683
 59 A    60 A    58 B    61 A    59 B    60 B    62 A    63 A                  
  0.703   0.719   0.722   0.726   0.735   0.751   0.755   0.794
 64 A    61 B    65 A    62 B    63 B    66 A    64 B    67 A                  
  0.802   0.818   0.830   0.848   0.887   0.921   0.934   0.952
 65 B    66 B    68 A    67 B    69 A    68 B    70 A    71 A                  
  0.955   0.956   0.963   0.975   0.989   0.991   1.004   1.013
 72 A    69 B    70 B    71 B    73 A    72 B    73 B    74 A                  
  1.037   1.039   1.078   1.083   1.104   1.111   1.129   1.169
 75 A    76 A    74 B    77 A    75 B    78 A    76 B    77 B                  
  1.172   1.188   1.189   1.247   1.254   1.329   1.338   1.356
 79 A    80 A    78 B    79 B    81 A    80 B    82 A    81 B                  
  1.357   1.369   1.381   1.449   1.497   1.511   1.558   1.592
 83 A    82 B    84 A    83 B    85 A    84 B    86 A    85 B                  
  1.656   1.694   1.717   1.783   1.865   1.875   1.891   1.916
 86 B    87 A    87 B    88 A    89 A    90 A    88 B    89 B                  
  1.928   1.969   1.990   2.017   2.025   2.075   2.085   2.130
 91 A    92 A    90 B    91 B    93 A    94 A    92 B    95 A                  
  2.139   2.179   2.183   2.244   2.248   2.287   2.298   2.365
 93 B    96 A    94 B    95 B    97 A    96 B    98 A    97 B                  
  2.368   2.421   2.456   2.469   2.477   2.508   2.510   2.523
 99 A    98 B   100 A   101 A    99 B   102 A   100 B   101 B                  
  2.546   2.578   2.583   2.598   2.687   2.695   2.728   2.768
103 A   104 A   105 A   102 B   103 B   104 B   106 A   107 A                  
  2.794   2.859   2.945   2.982   3.147   3.221   3.275   3.278
105 B   108 A   106 B   107 B   109 A   108 B   110 A   109 B                  
  3.401   3.437   3.717   3.763   3.944   4.016   4.233   4.303
111 A   110 B   112 A   111 B   113 A   112 B   114 A   115 A                  
  4.304   4.329   4.404   4.547   4.651   4.738
113 B   114 B   116 A   115 B   117 A   116 B                                  
 
 Beta MOs, Restricted
 -- Occupied --                  
-88.919 -88.919 -10.238 -10.238 -10.224 -10.224 -10.204 -10.204
  1 B     1 A     2 A     2 B     3 B     3 A     4 A     4 B                  
-10.202 -10.202  -7.979  -7.979  -5.943  -5.943  -5.939  -5.939
  5 B     5 A     6 B     6 A     7 B     7 A     8 B     8 A                  
 -5.936  -5.936  -0.902  -0.879  -0.772  -0.750  -0.737  -0.706
  9 A     9 B    10 A    10 B    11 A    12 A    11 B    12 B                  
 -0.604  -0.580  -0.554  -0.534  -0.528  -0.477  -0.421  -0.419
 13 A    14 A    13 B    14 B    15 A    15 B    16 A    17 A                  
 -0.409  -0.404  -0.401  -0.376  -0.374  -0.359  -0.343  -0.282
 16 B    17 B    18 A    18 B    19 A    20 A    19 B    20 B                  
 -0.265  -0.258  -0.213
 21 B    21 A    22 A                                                          
 -- Virtual --                   
 -0.057  -0.014  -0.004  -0.000   0.005   0.014   0.019   0.027
 22 B    23 A    24 A    23 B    25 A    26 A    24 B    27 A                  
  0.028   0.037   0.039   0.046   0.049   0.060   0.063   0.070
 25 B    28 A    26 B    29 A    27 B    30 A    28 B    29 B                  
  0.075   0.084   0.088   0.095   0.102   0.104   0.107   0.112
 31 A    30 B    31 B    32 A    32 B    33 A    34 A    35 A                  
  0.116   0.123   0.127   0.130   0.137   0.139   0.142   0.144
 33 B    36 A    34 B    37 A    35 B    38 A    36 B    39 A                  
  0.147   0.154   0.161   0.162   0.168   0.178   0.183   0.186
 40 A    37 B    41 A    38 B    39 B    40 B    42 A    41 B                  
  0.187   0.194   0.194   0.208   0.213   0.221   0.221   0.242
 43 A    42 B    44 A    43 B    45 A    44 B    46 A    45 B                  
  0.246   0.260   0.264   0.268   0.272   0.283   0.304   0.310
 47 A    46 B    48 A    47 B    49 A    48 B    50 A    49 B                  
  0.312   0.319   0.328   0.350   0.361   0.376   0.384   0.421
 51 A    52 A    50 B    53 A    51 B    52 B    54 A    53 B                  
  0.450   0.467   0.494   0.533   0.540   0.555   0.567   0.569
 55 A    56 A    54 B    57 A    55 B    56 B    57 B    58 A                  
  0.598   0.622   0.631   0.654   0.661   0.671   0.673   0.683
 59 A    60 A    58 B    61 A    59 B    60 B    62 A    63 A                  
  0.703   0.719   0.722   0.726   0.735   0.751   0.755   0.794
 64 A    61 B    65 A    62 B    63 B    66 A    64 B    67 A                  
  0.802   0.818   0.830   0.848   0.887   0.921   0.934   0.952
 65 B    66 B    68 A    67 B    69 A    68 B    70 A    71 A                  
  0.955   0.956   0.963   0.975   0.989   0.991   1.004   1.013
 72 A    69 B    70 B    71 B    73 A    72 B    73 B    74 A                  
  1.037   1.039   1.078   1.083   1.104   1.111   1.129   1.169
 75 A    76 A    74 B    77 A    75 B    78 A    76 B    77 B                  
  1.172   1.188   1.189   1.247   1.254   1.329   1.338   1.356
 79 A    80 A    78 B    79 B    81 A    80 B    82 A    81 B                  
  1.357   1.369   1.381   1.449   1.497   1.511   1.558   1.592
 83 A    82 B    84 A    83 B    85 A    84 B    86 A    85 B                  
  1.656   1.694   1.717   1.783   1.865   1.875   1.891   1.916
 86 B    87 A    87 B    88 A    89 A    90 A    88 B    89 B                  
  1.928   1.969   1.990   2.017   2.025   2.075   2.085   2.130
 91 A    92 A    90 B    91 B    93 A    94 A    92 B    95 A                  
  2.139   2.179   2.183   2.244   2.248   2.287   2.298   2.365
 93 B    96 A    94 B    95 B    97 A    96 B    98 A    97 B                  
  2.368   2.421   2.456   2.469   2.477   2.508   2.510   2.523
 99 A    98 B   100 A   101 A    99 B   102 A   100 B   101 B                  
  2.546   2.578   2.583   2.598   2.687   2.695   2.728   2.768
103 A   104 A   105 A   102 B   103 B   104 B   106 A   107 A                  
  2.794   2.859   2.945   2.982   3.147   3.221   3.275   3.278
105 B   108 A   106 B   107 B   109 A   108 B   110 A   109 B                  
  3.401   3.437   3.717   3.763   3.944   4.016   4.233   4.303
111 A   110 B   112 A   111 B   113 A   112 B   114 A   115 A                  
  4.304   4.329   4.404   4.547   4.651   4.738
113 B   114 B   116 A   115 B   117 A   116 B                                  
 --------------------------------------------------------------
 
          Ground-State Mulliken Net Atomic Charges

     Atom                 Charge (a.u.)
  ----------------------------------------
      1 S                    -0.134644
      2 C                     0.015143
      3 C                    -0.348740
      4 C                     0.361574
      5 C                    -0.329353
      6 H                     0.118894
      7 C                    -0.329353
      8 S                    -0.134644
      9 C                     0.361574
     10 C                     0.015143
     11 C                    -0.348740
     12 H                     0.120456
     13 H                     0.196670
     14 H                     0.120456
     15 H                     0.196670
     16 H                     0.118894
  ----------------------------------------
  Sum of atomic charges =    -0.000000

 -----------------------------------------------------------------
                    Cartesian Multipole Moments
 -----------------------------------------------------------------
    Charge (ESU x 10^10)
                -0.0000
    Dipole Moment (Debye)
         X       0.0000      Y      -0.0000      Z      -1.0040
       Tot       1.0040
    Quadrupole Moments (Debye-Ang)
        XX     -60.9218     XY      -0.5851     YY     -78.4633
        XZ      -0.0000     YZ       0.0000     ZZ     -67.8615
    Octopole Moments (Debye-Ang^2)
       XXX       0.0000    XXY       0.0000    XYY       0.0000
       YYY      -0.0000    XXZ       5.5508    XYZ       5.1055
       YYZ       3.1115    XZZ       0.0000    YZZ      -0.0000
       ZZZ      -7.5619
    Hexadecapole Moments (Debye-Ang^3)
      XXXX   -1864.9355   XXXY      -3.9334   XXYY    -418.7511
      XYYY       3.5501   YYYY    -120.5600   XXXZ      -0.0000
      XXYZ      -0.0000   XYYZ      -0.0000   YYYZ      -0.0000
      XXZZ    -401.5754   XYZZ      -5.3858   YYZZ    -122.0163
      XZZZ      -0.0000   YZZZ       0.0000   ZZZZ    -540.2487
 -----------------------------------------------------------------
 Calculating analytic gradient of the SCF energy
 Gradient of SCF Energy
            1           2           3           4           5           6
    1  -0.0015248  -0.0005943  -0.0005031   0.0003181   0.0013249   0.0002895
    2  -0.0001916  -0.0006718   0.0002009   0.0011372  -0.0009584   0.0003992
    3  -0.0009670  -0.0035186   0.0027559   0.0034444  -0.0032956   0.0011644
            7           8           9          10          11          12
    1  -0.0013249   0.0015248  -0.0003181   0.0005943   0.0005031   0.0010860
    2   0.0009584   0.0001916  -0.0011372   0.0006718  -0.0002009  -0.0002018
    3  -0.0032956  -0.0009670   0.0034444  -0.0035186   0.0027559   0.0010233
           13          14          15          16
    1  -0.0013918  -0.0010860   0.0013918  -0.0002895
    2  -0.0002024   0.0002018   0.0002024  -0.0003992
    3  -0.0006068   0.0010233  -0.0006068   0.0011644
 Max gradient component =       3.519E-03
 RMS gradient           =       1.546E-03
 Gradient time:  CPU 2.01 s  wall 1.93 s
 Geometry Optimization Parameters
   NAtoms,    NIC,     NZ,  NCons,   NDum,   NFix, NCnnct, MaxDiis
       16     111       0       1       0       0       0       0


** CONSTRAINED OPTIMIZATION IN DELOCALIZED INTERNAL COORDINATES **
   Searching for a Minimum

   Optimization Cycle:   1

                       Coordinates (Angstroms)
     ATOM                X               Y               Z
      1  S         1.6270519202    0.2352329788    1.1310865090
      2  C         3.1393340356    0.0383109608    0.3088244180
      3  C         2.9600009701   -0.1871491100   -1.0262500581
      4  C         1.5885559895   -0.2187933495   -1.4027369281
      5  C         0.7254739117   -0.0152400023   -0.3513862995
      6  H         1.2469338412   -0.4104448359   -2.4116922045
      7  C        -0.7254739117    0.0152400023   -0.3513862995
      8  S        -1.6270519202   -0.2352329788    1.1310865090
      9  C        -1.5885559895    0.2187933495   -1.4027369281
     10  C        -3.1393340356   -0.0383109608    0.3088244180
     11  C        -2.9600009701    0.1871491100   -1.0262500581
     12  H        -3.7775939566    0.3365366101   -1.7190263620
     13  H         4.0634446374    0.1016848393    0.8626276380
     14  H         3.7775939566   -0.3365366101   -1.7190263620
     15  H        -4.0634446374   -0.1016848393    0.8626276380
     16  H        -1.2469338412    0.4104448359   -2.4116922045
   Point Group: c2    Number of degrees of freedom:    22


   Energy is  -1104.839056120

              Constraints and their Current Values
                                        Value     Constraint
   Dihedral:        4   5   7   9      -20.000      -20.000

 Attempting to Generate Delocalized Internal Coordinates

 21 Hessian modes will be used to form the next step
  Hessian Eigenvalues:
     0.045000    0.045000    0.045000    0.045002    0.045004    0.045013
     0.159937    0.159990    0.160000    0.221280    0.237833    0.249997
     0.296078    0.314672    0.357149    0.357543    0.360899    0.380793
     0.408411    0.470750    0.505998

 Minimum Search - Taking Simple RFO Step
 Searching for Lamda that Minimizes Along All modes
 Value Taken    Lamda =  -0.00067325
 Step Taken.  Stepsize is  0.055386

                             Maximum     Tolerance    Cnvgd?
         Gradient           0.007217      0.000300      NO
         Displacement       0.033597      0.001200      NO
         Energy change     *********      0.000001      NO


 New Cartesian Coordinates Obtained by Inverse Iteration

 Displacement from previous Coordinates is:  0.245725
 ----------------------------------------------------------------
             Standard Nuclear Orientation (Angstroms)
    I     Atom           X                Y                Z
 ----------------------------------------------------------------
    1      S       1.6614267763     0.2380839705     1.1465940051
    2      C       3.1611558423     0.0439891243     0.2971096544
    3      C       2.9559747207    -0.1882992829    -1.0377045558
    4      C       1.5748155247    -0.2259322502    -1.3886158477
    5      C       0.7276245536    -0.0172583493    -0.3194299363
    6      H       1.2151490058    -0.4222693970    -2.3923666943
    7      C      -0.7276245536     0.0172583493    -0.3194299363
    8      S      -1.6614267763    -0.2380839705     1.1465940051
    9      C      -1.5748155247     0.2259322502    -1.3886158477
   10      C      -3.1611558423    -0.0439891243     0.2971096544
   11      C      -2.9559747207     0.1882992829    -1.0377045558
   12      H      -3.7618810709     0.3380313595    -1.7473672197
   13      H       4.0977509960     0.1136517056     0.8332273070
   14      H       3.7618810709    -0.3380313595    -1.7473672197
   15      H      -4.0977509960    -0.1136517056     0.8332273070
   16      H      -1.2151490058     0.4222693970    -2.3923666943
 ----------------------------------------------------------------
 Molecular Point Group                 C2    NOp =  2
 Largest Abelian Subgroup              C2    NOp =  2
 Nuclear Repulsion Energy =   631.4121663148 hartrees
 There are       43 alpha and       43 beta electrons
 Applying Cartesian multipole field
    Component          Value
    ---------          -----
     (2,0,0)        1.00000E-11
     (0,2,0)        2.00000E-11
     (0,0,2)       -3.00000E-11
 Nucleus-field energy     =     0.0000000044 hartrees
 Requested basis set is 6-31++G(d,p)
 There are 76 shells and 234 basis functions
 A cutoff of  1.0D-11 yielded   2491 shell pairs
 There are     24603 function pairs
 Smallest overlap matrix eigenvalue = 9.12E-07

 Q-Chem warning in module /project/projectdirs/jcesr/qchem/qc44/cnl_qc441/compile/cori/qc_src/stvman/mkSTV.C, line 257:

 Overlap eigenvalue is smaller than square root of threshold

 Linear dependence detected in AO basis
 Number of orthogonalized atomic orbitals = 233
 Maximum deviation from orthogonality = 8.553E-11
 Guess MOs from SCF MO coefficient file
 Reading MOs from coefficient file
 Reading MOs from coefficient file
 A restricted hybrid HF-DFT SCF calculation will be
 performed using Pulay DIIS extrapolation
 Exchange:     0.2000 Hartree-Fock + 0.0800 Slater + 0.7200 B88
 Correlation:  0.1900 VWN1RPA + 0.8100 LYP
 Using SG-1 standard quadrature grid
 SCF converges when DIIS error is below 1.0E-08
 Geometry optimization detected.  Setting ReadMinima to 0
 Setting SaveMinima to 0
 ---------------------------------------
  Cycle       Energy         DIIS Error
 ---------------------------------------
    1   -1104.8070057458      9.44E-04
    2   -1104.8386117483      3.12E-04
    3   -1104.8363907449      6.23E-04
    4   -1104.8394065788      4.10E-05
    5   -1104.8394165022      1.93E-05
    6   -1104.8394190728      5.40E-06
    7   -1104.8394192863      1.95E-06
    8   -1104.8394193104      4.44E-07
    9   -1104.8394193116      9.70E-08
   10   -1104.8394193128      3.39E-08
   11   -1104.8394193139      9.22E-09 Convergence criterion met
 ---------------------------------------
 SCF time:  CPU 5.90 s  wall 5.22 s
 SCF   energy in the final basis set = -1104.8394193139
 Total energy in the final basis set = -1104.8394193139
 
 --------------------------------------------------------------
             Orbital Energies (a.u.) and Symmetries
 --------------------------------------------------------------
 
 Alpha MOs, Restricted
 -- Occupied --                  
-88.920 -88.920 -10.240 -10.239 -10.225 -10.225 -10.205 -10.205
  1 B     1 A     2 A     2 B     3 B     3 A     4 A     4 B                  
-10.204 -10.204  -7.979  -7.979  -5.943  -5.943  -5.940  -5.940
  5 B     5 A     6 B     6 A     7 B     7 A     8 B     8 A                  
 -5.936  -5.936  -0.900  -0.878  -0.771  -0.749  -0.737  -0.705
  9 A     9 B    10 A    10 B    11 A    12 A    11 B    12 B                  
 -0.604  -0.579  -0.554  -0.533  -0.527  -0.477  -0.421  -0.418
 13 A    14 A    13 B    14 B    15 A    15 B    16 A    17 A                  
 -0.408  -0.403  -0.401  -0.376  -0.374  -0.359  -0.344  -0.281
 16 B    17 B    18 A    18 B    19 A    20 A    19 B    20 B                  
 -0.264  -0.258  -0.213
 21 B    21 A    22 A                                                          
 -- Virtual --                   
 -0.058  -0.014  -0.004  -0.000   0.004   0.014   0.019   0.027
 22 B    23 A    24 A    23 B    25 A    26 A    24 B    27 A                  
  0.027   0.037   0.038   0.046   0.048   0.059   0.062   0.070
 25 B    28 A    26 B    29 A    27 B    30 A    28 B    29 B                  
  0.074   0.082   0.088   0.095   0.102   0.103   0.107   0.112
 31 A    30 B    31 B    32 A    32 B    33 A    34 A    35 A                  
  0.115   0.123   0.126   0.130   0.137   0.139   0.141   0.144
 33 B    36 A    34 B    37 A    35 B    38 A    36 B    39 A                  
  0.145   0.152   0.161   0.162   0.167   0.178   0.183   0.185
 40 A    37 B    41 A    38 B    39 B    40 B    42 A    41 B                  
  0.186   0.193   0.194   0.208   0.213   0.221   0.221   0.241
 43 A    42 B    44 A    43 B    45 A    46 A    44 B    45 B                  
  0.246   0.260   0.263   0.266   0.271   0.281   0.304   0.308
 47 A    46 B    48 A    47 B    49 A    48 B    50 A    49 B                  
  0.312   0.317   0.325   0.349   0.359   0.374   0.383   0.419
 51 A    52 A    50 B    53 A    51 B    52 B    54 A    53 B                  
  0.445   0.466   0.495   0.532   0.537   0.553   0.565   0.568
 55 A    56 A    54 B    57 A    55 B    56 B    57 B    58 A                  
  0.599   0.623   0.631   0.653   0.661   0.670   0.671   0.681
 59 A    60 A    58 B    61 A    59 B    60 B    62 A    63 A                  
  0.703   0.716   0.722   0.725   0.735   0.750   0.752   0.792
 64 A    61 B    65 A    62 B    63 B    64 B    66 A    67 A                  
  0.799   0.817   0.830   0.846   0.885   0.918   0.935   0.952
 65 B    66 B    68 A    67 B    69 A    68 B    70 A    71 A                  
  0.954   0.955   0.962   0.974   0.988   0.993   1.006   1.010
 69 B    72 A    70 B    71 B    73 A    72 B    73 B    74 A                  
  1.035   1.039   1.077   1.081   1.102   1.107   1.128   1.167
 75 A    76 A    74 B    77 A    75 B    78 A    76 B    77 B                  
  1.171   1.186   1.187   1.247   1.250   1.330   1.339   1.355
 79 A    80 A    78 B    79 B    81 A    80 B    82 A    81 B                  
  1.356   1.368   1.379   1.444   1.493   1.508   1.552   1.587
 83 A    82 B    84 A    83 B    85 A    84 B    86 A    85 B                  
  1.655   1.693   1.716   1.781   1.863   1.873   1.887   1.911
 86 B    87 A    87 B    88 A    89 A    90 A    88 B    89 B                  
  1.923   1.967   1.987   2.011   2.020   2.070   2.080   2.130
 91 A    92 A    90 B    91 B    93 A    94 A    92 B    95 A                  
  2.136   2.177   2.179   2.238   2.243   2.284   2.294   2.363
 93 B    96 A    94 B    95 B    97 A    96 B    98 A    97 B                  
  2.366   2.418   2.454   2.466   2.473   2.505   2.506   2.520
 99 A    98 B   100 A   101 A    99 B   102 A   100 B   101 B                  
  2.540   2.572   2.578   2.594   2.681   2.689   2.720   2.761
103 A   104 A   105 A   102 B   103 B   104 B   106 A   107 A                  
  2.793   2.855   2.936   2.970   3.139   3.212   3.270   3.272
105 B   108 A   106 B   107 B   109 A   108 B   110 A   109 B                  
  3.396   3.430   3.708   3.753   3.943   4.012   4.234   4.300
111 A   110 B   112 A   111 B   113 A   112 B   114 A   115 A                  
  4.301   4.327   4.402   4.541   4.646   4.730
113 B   114 B   116 A   115 B   117 A   116 B                                  
 
 Beta MOs, Restricted
 -- Occupied --                  
-88.920 -88.920 -10.240 -10.239 -10.225 -10.225 -10.205 -10.205
  1 B     1 A     2 A     2 B     3 B     3 A     4 A     4 B                  
-10.204 -10.204  -7.979  -7.979  -5.943  -5.943  -5.940  -5.940
  5 B     5 A     6 B     6 A     7 B     7 A     8 B     8 A                  
 -5.936  -5.936  -0.900  -0.878  -0.771  -0.749  -0.737  -0.705
  9 A     9 B    10 A    10 B    11 A    12 A    11 B    12 B                  
 -0.604  -0.579  -0.554  -0.533  -0.527  -0.477  -0.421  -0.418
 13 A    14 A    13 B    14 B    15 A    15 B    16 A    17 A                  
 -0.408  -0.403  -0.401  -0.376  -0.374  -0.359  -0.344  -0.281
 16 B    17 B    18 A    18 B    19 A    20 A    19 B    20 B                  
 -0.264  -0.258  -0.213
 21 B    21 A    22 A                                                          
 -- Virtual --                   
 -0.058  -0.014  -0.004  -0.000   0.004   0.014   0.019   0.027
 22 B    23 A    24 A    23 B    25 A    26 A    24 B    27 A                  
  0.027   0.037   0.038   0.046   0.048   0.059   0.062   0.070
 25 B    28 A    26 B    29 A    27 B    30 A    28 B    29 B                  
  0.074   0.082   0.088   0.095   0.102   0.103   0.107   0.112
 31 A    30 B    31 B    32 A    32 B    33 A    34 A    35 A                  
  0.115   0.123   0.126   0.130   0.137   0.139   0.141   0.144
 33 B    36 A    34 B    37 A    35 B    38 A    36 B    39 A                  
  0.145   0.152   0.161   0.162   0.167   0.178   0.183   0.185
 40 A    37 B    41 A    38 B    39 B    40 B    42 A    41 B                  
  0.186   0.193   0.194   0.208   0.213   0.221   0.221   0.241
 43 A    42 B    44 A    43 B    45 A    46 A    44 B    45 B                  
  0.246   0.260   0.263   0.266   0.271   0.281   0.304   0.308
 47 A    46 B    48 A    47 B    49 A    48 B    50 A    49 B                  
  0.312   0.317   0.325   0.349   0.359   0.374   0.383   0.419
 51 A    52 A    50 B    53 A    51 B    52 B    54 A    53 B                  
  0.445   0.466   0.495   0.532   0.537   0.553   0.565   0.568
 55 A    56 A    54 B    57 A    55 B    56 B    57 B    58 A                  
  0.599   0.623   0.631   0.653   0.661   0.670   0.671   0.681
 59 A    60 A    58 B    61 A    59 B    60 B    62 A    63 A                  
  0.703   0.716   0.722   0.725   0.735   0.750   0.752   0.792
 64 A    61 B    65 A    62 B    63 B    64 B    66 A    67 A                  
  0.799   0.817   0.830   0.846   0.885   0.918   0.935   0.952
 65 B    66 B    68 A    67 B    69 A    68 B    70 A    71 A                  
  0.954   0.955   0.962   0.974   0.988   0.993   1.006   1.010
 69 B    72 A    70 B    71 B    73 A    72 B    73 B    74 A                  
  1.035   1.039   1.077   1.081   1.102   1.107   1.128   1.167
 75 A    76 A    74 B    77 A    75 B    78 A    76 B    77 B                  
  1.171   1.186   1.187   1.247   1.250   1.330   1.339   1.355
 79 A    80 A    78 B    79 B    81 A    80 B    82 A    81 B                  
  1.356   1.368   1.379   1.444   1.493   1.508   1.552   1.587
 83 A    82 B    84 A    83 B    85 A    84 B    86 A    85 B                  
  1.655   1.693   1.716   1.781   1.863   1.873   1.887   1.911
 86 B    87 A    87 B    88 A    89 A    90 A    88 B    89 B                  
  1.923   1.967   1.987   2.011   2.020   2.070   2.080   2.130
 91 A    92 A    90 B    91 B    93 A    94 A    92 B    95 A                  
  2.136   2.177   2.179   2.238   2.243   2.284   2.294   2.363
 93 B    96 A    94 B    95 B    97 A    96 B    98 A    97 B                  
  2.366   2.418   2.454   2.466   2.473   2.505   2.506   2.520
 99 A    98 B   100 A   101 A    99 B   102 A   100 B   101 B                  
  2.540   2.572   2.578   2.594   2.681   2.689   2.720   2.761
103 A   104 A   105 A   102 B   103 B   104 B   106 A   107 A                  
  2.793   2.855   2.936   2.970   3.139   3.212   3.270   3.272
105 B   108 A   106 B   107 B   109 A   108 B   110 A   109 B                  
  3.396   3.430   3.708   3.753   3.943   4.012   4.234   4.300
111 A   110 B   112 A   111 B   113 A   112 B   114 A   115 A                  
  4.301   4.327   4.402   4.541   4.646   4.730
113 B   114 B   116 A   115 B   117 A   116 B                                  
 --------------------------------------------------------------
 
          Ground-State Mulliken Net Atomic Charges

     Atom                 Charge (a.u.)
  ----------------------------------------
      1 S                    -0.113141
      2 C                     0.006747
      3 C                    -0.342400
      4 C                     0.320273
      5 C                    -0.307937
      6 H                     0.118917
      7 C                    -0.307936
      8 S                    -0.113141
      9 C                     0.320273
     10 C                     0.006747
     11 C                    -0.342400
     12 H                     0.120792
     13 H                     0.196749
     14 H                     0.120792
     15 H                     0.196749
     16 H                     0.118917
  ----------------------------------------
  Sum of atomic charges =     0.000000

 -----------------------------------------------------------------
                    Cartesian Multipole Moments
 -----------------------------------------------------------------
    Charge (ESU x 10^10)
                 0.0000
    Dipole Moment (Debye)
         X      -0.0000      Y       0.0000      Z      -1.0248
       Tot       1.0248
    Quadrupole Moments (Debye-Ang)
        XX     -60.8382     XY      -0.4952     YY     -78.5650
        XZ      -0.0000     YZ       0.0000     ZZ     -67.9688
    Octopole Moments (Debye-Ang^2)
       XXX       0.0000    XXY       0.0000    XYY      -0.0000
       YYY       0.0000    XXZ       4.9053    XYZ       5.2269
       YYZ       2.5314    XZZ       0.0000    YZZ       0.0000
       ZZZ      -9.4869
    Hexadecapole Moments (Debye-Ang^3)
      XXXX   -1881.1280   XXXY      -3.0877   XXYY    -423.5265
      XYYY       2.1148   YYYY    -121.5294   XXXZ      -0.0000
      XXYZ      -0.0000   XYYZ       0.0000   YYYZ       0.0000
      XXZZ    -406.4650   XYZZ      -5.9171   YYZZ    -122.5373
      XZZZ       0.0000   YZZZ       0.0000   ZZZZ    -543.7887
 -----------------------------------------------------------------
 Calculating analytic gradient of the SCF energy
 Gradient of SCF Energy
            1           2           3           4           5           6
    1   0.0001133   0.0004063   0.0004434  -0.0001489   0.0001880  -0.0000949
    2  -0.0000146  -0.0000352  -0.0001867   0.0004959  -0.0002585   0.0001725
    3   0.0004146   0.0001301   0.0002644   0.0005357  -0.0011601  -0.0001763
            7           8           9          10          11          12
    1  -0.0001880  -0.0001133   0.0001489  -0.0004063  -0.0004434  -0.0000730
    2   0.0002585   0.0000146  -0.0004959   0.0000352   0.0001867  -0.0000003
    3  -0.0011601   0.0004146   0.0005357   0.0001301   0.0002644  -0.0000537
           13          14          15          16
    1   0.0001159   0.0000730  -0.0001159   0.0000949
    2  -0.0000148   0.0000003   0.0000148  -0.0001725
    3   0.0000452  -0.0000537   0.0000452  -0.0001763
 Max gradient component =       1.160E-03
 RMS gradient           =       3.395E-04
 Gradient time:  CPU 1.90 s  wall 1.91 s
 Geometry Optimization Parameters
   NAtoms,    NIC,     NZ,  NCons,   NDum,   NFix, NCnnct, MaxDiis
       16     111       0       1       0       0       0       0

 Cartesian Hessian Update
 Hessian Updated using BFGS Update


** CONSTRAINED OPTIMIZATION IN DELOCALIZED INTERNAL COORDINATES **
   Searching for a Minimum

   Optimization Cycle:   2

                       Coordinates (Angstroms)
     ATOM                X               Y               Z
      1  S         1.6614267763    0.2380839705    1.1465940051
      2  C         3.1611558423    0.0439891243    0.2971096544
      3  C         2.9559747207   -0.1882992829   -1.0377045558
      4  C         1.5748155247   -0.2259322502   -1.3886158477
      5  C         0.7276245536   -0.0172583493   -0.3194299363
      6  H         1.2151490058   -0.4222693970   -2.3923666943
      7  C        -0.7276245536    0.0172583493   -0.3194299363
      8  S        -1.6614267763   -0.2380839705    1.1465940051
      9  C        -1.5748155247    0.2259322502   -1.3886158477
     10  C        -3.1611558423   -0.0439891243    0.2971096544
     11  C        -2.9559747207    0.1882992829   -1.0377045558
     12  H        -3.7618810709    0.3380313595   -1.7473672197
     13  H         4.0977509960    0.1136517056    0.8332273070
     14  H         3.7618810709   -0.3380313595   -1.7473672197
     15  H        -4.0977509960   -0.1136517056    0.8332273070
     16  H        -1.2151490058    0.4222693970   -2.3923666943
   Point Group: c2    Number of degrees of freedom:    22


   Energy is  -1104.839419314

              Constraints and their Current Values
                                        Value     Constraint
   Dihedral:        4   5   7   9      -20.000      -20.000
 Hessian Updated using BFGS Update

 21 Hessian modes will be used to form the next step
  Hessian Eigenvalues:
     0.041108    0.045000    0.045001    0.045002    0.045009    0.045066
     0.159832    0.159983    0.160056    0.204156    0.221747    0.245318
     0.303157    0.315275    0.357303    0.358586    0.362131    0.388626
     0.435877    0.470452    0.527845

 Minimum Search - Taking Simple RFO Step
 Searching for Lamda that Minimizes Along All modes
 Value Taken    Lamda =  -0.00006164
 Step Taken.  Stepsize is  0.028063

                             Maximum     Tolerance    Cnvgd?
         Gradient           0.002150      0.000300      NO
         Displacement       0.019624      0.001200      NO
         Energy change     -0.000363      0.000001      NO


 New Cartesian Coordinates Obtained by Inverse Iteration

 Displacement from previous Coordinates is:  0.100312
 ----------------------------------------------------------------
             Standard Nuclear Orientation (Angstroms)
    I     Atom           X                Y                Z
 ----------------------------------------------------------------
    1      S       1.6687403893     0.2407169996     1.1516550083
    2      C       3.1621066633     0.0477270976     0.2910202901
    3      C       2.9488587777    -0.1892095511    -1.0420361018
    4      C       1.5661628555    -0.2315053136    -1.3826660683
    5      C       0.7269060132    -0.0193985613    -0.3071517778
    6      H       1.1996843398    -0.4323919115    -2.3829161951
    7      C      -0.7269060132     0.0193985613    -0.3071517778
    8      S      -1.6687403893    -0.2407169996     1.1516550083
    9      C      -1.5661628555     0.2315053136    -1.3826660683
   10      C      -3.1621066633    -0.0477270976     0.2910202901
   11      C      -2.9488587777     0.1892095511    -1.0420361018
   12      H      -3.7502270045     0.3396301850    -1.7567222433
   13      H       4.1022846871     0.1212721236     0.8202638006
   14      H       3.7502270045    -0.3396301850    -1.7567222433
   15      H      -4.1022846871    -0.1212721236     0.8202638006
   16      H      -1.1996843398     0.4323919115    -2.3829161951
 ----------------------------------------------------------------
 Molecular Point Group                 C2    NOp =  2
 Largest Abelian Subgroup              C2    NOp =  2
 Nuclear Repulsion Energy =   631.3774253503 hartrees
 There are       43 alpha and       43 beta electrons
 Applying Cartesian multipole field
    Component          Value
    ---------          -----
     (2,0,0)        1.00000E-11
     (0,2,0)        2.00000E-11
     (0,0,2)       -3.00000E-11
 Nucleus-field energy     =     0.0000000044 hartrees
 Requested basis set is 6-31++G(d,p)
 There are 76 shells and 234 basis functions
 A cutoff of  1.0D-11 yielded   2493 shell pairs
 There are     24627 function pairs
 Smallest overlap matrix eigenvalue = 8.89E-07

 Q-Chem warning in module /project/projectdirs/jcesr/qchem/qc44/cnl_qc441/compile/cori/qc_src/stvman/mkSTV.C, line 257:

 Overlap eigenvalue is smaller than square root of threshold

 Linear dependence detected in AO basis
 Number of orthogonalized atomic orbitals = 233
 Maximum deviation from orthogonality = 8.201E-11
 Guess MOs from SCF MO coefficient file
 Reading MOs from coefficient file
 Reading MOs from coefficient file
 A restricted hybrid HF-DFT SCF calculation will be
 performed using Pulay DIIS extrapolation
 Exchange:     0.2000 Hartree-Fock + 0.0800 Slater + 0.7200 B88
 Correlation:  0.1900 VWN1RPA + 0.8100 LYP
 Using SG-1 standard quadrature grid
 SCF converges when DIIS error is below 1.0E-08
 Geometry optimization detected.  Setting ReadMinima to 0
 Setting SaveMinima to 0
 ---------------------------------------
  Cycle       Energy         DIIS Error
 ---------------------------------------
    1   -1104.8390878253      3.97E-04
    2   -1104.8393576073      1.11E-04
    3   -1104.8390853363      2.20E-04
    4   -1104.8394537214      2.10E-05
    5   -1104.8394568169      6.62E-06
    6   -1104.8394570751      2.76E-06
    7   -1104.8394571307      7.89E-07
    8   -1104.8394571368      2.33E-07
    9   -1104.8394571365      3.97E-08
   10   -1104.8394571375      8.42E-09 Convergence criterion met
 ---------------------------------------
 SCF time:  CPU 5.44 s  wall 4.75 s
 SCF   energy in the final basis set = -1104.8394571375
 Total energy in the final basis set = -1104.8394571375
 
 --------------------------------------------------------------
             Orbital Energies (a.u.) and Symmetries
 --------------------------------------------------------------
 
 Alpha MOs, Restricted
 -- Occupied --                  
-88.920 -88.920 -10.239 -10.239 -10.225 -10.225 -10.205 -10.205
  1 B     1 A     2 A     2 B     3 B     3 A     4 A     4 B                  
-10.203 -10.203  -7.979  -7.979  -5.944  -5.944  -5.940  -5.940
  5 B     5 A     6 B     6 A     7 B     7 A     8 B     8 A                  
 -5.937  -5.937  -0.900  -0.878  -0.771  -0.749  -0.737  -0.705
  9 A     9 B    10 A    10 B    11 A    12 A    11 B    12 B                  
 -0.604  -0.579  -0.554  -0.533  -0.527  -0.477  -0.421  -0.418
 13 A    14 A    13 B    14 B    15 A    15 B    16 A    17 A                  
 -0.408  -0.403  -0.401  -0.376  -0.374  -0.359  -0.344  -0.281
 16 B    17 B    18 A    18 B    19 A    20 A    19 B    20 B                  
 -0.264  -0.259  -0.213
 21 B    21 A    22 A                                                          
 -- Virtual --                   
 -0.057  -0.014  -0.004  -0.000   0.004   0.014   0.019   0.026
 22 B    23 A    24 A    23 B    25 A    26 A    24 B    27 A                  
  0.027   0.037   0.038   0.046   0.048   0.059   0.062   0.070
 25 B    28 A    26 B    29 A    27 B    30 A    28 B    29 B                  
  0.074   0.082   0.088   0.095   0.102   0.103   0.107   0.112
 31 A    30 B    31 B    32 A    32 B    33 A    34 A    35 A                  
  0.115   0.124   0.126   0.130   0.137   0.139   0.141   0.145
 33 B    36 A    34 B    37 A    35 B    38 A    36 B    39 A                  
  0.145   0.152   0.161   0.162   0.167   0.178   0.183   0.185
 40 A    37 B    41 A    38 B    39 B    40 B    42 A    41 B                  
  0.186   0.194   0.194   0.208   0.213   0.221   0.221   0.241
 43 A    42 B    44 A    43 B    45 A    46 A    44 B    45 B                  
  0.246   0.260   0.263   0.266   0.271   0.280   0.304   0.309
 47 A    46 B    48 A    47 B    49 A    48 B    50 A    49 B                  
  0.312   0.317   0.325   0.349   0.359   0.375   0.382   0.419
 51 A    52 A    50 B    53 A    51 B    52 B    54 A    53 B                  
  0.445   0.466   0.496   0.531   0.536   0.554   0.565   0.568
 55 A    56 A    54 B    57 A    55 B    56 B    57 B    58 A                  
  0.600   0.624   0.631   0.653   0.661   0.669   0.671   0.680
 59 A    60 A    58 B    61 A    59 B    60 B    62 A    63 A                  
  0.704   0.715   0.722   0.725   0.735   0.751   0.752   0.792
 64 A    61 B    65 A    62 B    63 B    64 B    66 A    67 A                  
  0.798   0.817   0.830   0.847   0.885   0.918   0.935   0.952
 65 B    66 B    68 A    67 B    69 A    68 B    70 A    71 A                  
  0.953   0.956   0.962   0.974   0.988   0.993   1.008   1.009
 69 B    72 A    70 B    71 B    73 A    72 B    73 B    74 A                  
  1.035   1.040   1.077   1.081   1.101   1.107   1.129   1.167
 75 A    76 A    74 B    77 A    75 B    78 A    76 B    77 B                  
  1.170   1.186   1.187   1.247   1.251   1.331   1.340   1.355
 79 A    78 B    80 A    79 B    81 A    80 B    82 A    81 B                  
  1.355   1.367   1.379   1.443   1.493   1.509   1.552   1.585
 83 A    82 B    84 A    83 B    85 A    84 B    86 A    85 B                  
  1.657   1.693   1.716   1.782   1.863   1.874   1.887   1.911
 86 B    87 A    87 B    88 A    89 A    90 A    88 B    89 B                  
  1.924   1.967   1.987   2.012   2.020   2.071   2.079   2.132
 91 A    92 A    90 B    91 B    93 A    94 A    92 B    95 A                  
  2.136   2.178   2.180   2.238   2.243   2.285   2.296   2.363
 93 B    96 A    94 B    95 B    97 A    96 B    98 A    97 B                  
  2.366   2.419   2.454   2.466   2.472   2.505   2.506   2.520
 99 A    98 B   100 A   101 A    99 B   100 B   102 A   101 B                  
  2.540   2.571   2.578   2.594   2.680   2.690   2.720   2.761
103 A   104 A   105 A   102 B   103 B   104 B   106 A   107 A                  
  2.795   2.856   2.935   2.969   3.140   3.211   3.270   3.271
105 B   108 A   106 B   107 B   109 A   108 B   110 A   109 B                  
  3.396   3.430   3.709   3.754   3.943   4.011   4.236   4.300
111 A   110 B   112 A   111 B   113 A   112 B   114 A   113 B                  
  4.301   4.327   4.402   4.541   4.646   4.730
115 A   114 B   116 A   115 B   117 A   116 B                                  
 
 Beta MOs, Restricted
 -- Occupied --                  
-88.920 -88.920 -10.239 -10.239 -10.225 -10.225 -10.205 -10.205
  1 B     1 A     2 A     2 B     3 B     3 A     4 A     4 B                  
-10.203 -10.203  -7.979  -7.979  -5.944  -5.944  -5.940  -5.940
  5 B     5 A     6 B     6 A     7 B     7 A     8 B     8 A                  
 -5.937  -5.937  -0.900  -0.878  -0.771  -0.749  -0.737  -0.705
  9 A     9 B    10 A    10 B    11 A    12 A    11 B    12 B                  
 -0.604  -0.579  -0.554  -0.533  -0.527  -0.477  -0.421  -0.418
 13 A    14 A    13 B    14 B    15 A    15 B    16 A    17 A                  
 -0.408  -0.403  -0.401  -0.376  -0.374  -0.359  -0.344  -0.281
 16 B    17 B    18 A    18 B    19 A    20 A    19 B    20 B                  
 -0.264  -0.259  -0.213
 21 B    21 A    22 A                                                          
 -- Virtual --                   
 -0.057  -0.014  -0.004  -0.000   0.004   0.014   0.019   0.026
 22 B    23 A    24 A    23 B    25 A    26 A    24 B    27 A                  
  0.027   0.037   0.038   0.046   0.048   0.059   0.062   0.070
 25 B    28 A    26 B    29 A    27 B    30 A    28 B    29 B                  
  0.074   0.082   0.088   0.095   0.102   0.103   0.107   0.112
 31 A    30 B    31 B    32 A    32 B    33 A    34 A    35 A                  
  0.115   0.124   0.126   0.130   0.137   0.139   0.141   0.145
 33 B    36 A    34 B    37 A    35 B    38 A    36 B    39 A                  
  0.145   0.152   0.161   0.162   0.167   0.178   0.183   0.185
 40 A    37 B    41 A    38 B    39 B    40 B    42 A    41 B                  
  0.186   0.194   0.194   0.208   0.213   0.221   0.221   0.241
 43 A    42 B    44 A    43 B    45 A    46 A    44 B    45 B                  
  0.246   0.260   0.263   0.266   0.271   0.280   0.304   0.309
 47 A    46 B    48 A    47 B    49 A    48 B    50 A    49 B                  
  0.312   0.317   0.325   0.349   0.359   0.375   0.382   0.419
 51 A    52 A    50 B    53 A    51 B    52 B    54 A    53 B                  
  0.445   0.466   0.496   0.531   0.536   0.554   0.565   0.568
 55 A    56 A    54 B    57 A    55 B    56 B    57 B    58 A                  
  0.600   0.624   0.631   0.653   0.661   0.669   0.671   0.680
 59 A    60 A    58 B    61 A    59 B    60 B    62 A    63 A                  
  0.704   0.715   0.722   0.725   0.735   0.751   0.752   0.792
 64 A    61 B    65 A    62 B    63 B    64 B    66 A    67 A                  
  0.798   0.817   0.830   0.847   0.885   0.918   0.935   0.952
 65 B    66 B    68 A    67 B    69 A    68 B    70 A    71 A                  
  0.953   0.956   0.962   0.974   0.988   0.993   1.008   1.009
 69 B    72 A    70 B    71 B    73 A    72 B    73 B    74 A                  
  1.035   1.040   1.077   1.081   1.101   1.107   1.129   1.167
 75 A    76 A    74 B    77 A    75 B    78 A    76 B    77 B                  
  1.170   1.186   1.187   1.247   1.251   1.331   1.340   1.355
 79 A    78 B    80 A    79 B    81 A    80 B    82 A    81 B                  
  1.355   1.367   1.379   1.443   1.493   1.509   1.552   1.585
 83 A    82 B    84 A    83 B    85 A    84 B    86 A    85 B                  
  1.657   1.693   1.716   1.782   1.863   1.874   1.887   1.911
 86 B    87 A    87 B    88 A    89 A    90 A    88 B    89 B                  
  1.924   1.967   1.987   2.012   2.020   2.071   2.079   2.132
 91 A    92 A    90 B    91 B    93 A    94 A    92 B    95 A                  
  2.136   2.178   2.180   2.238   2.243   2.285   2.296   2.363
 93 B    96 A    94 B    95 B    97 A    96 B    98 A    97 B                  
  2.366   2.419   2.454   2.466   2.472   2.505   2.506   2.520
 99 A    98 B   100 A   101 A    99 B   100 B   102 A   101 B                  
  2.540   2.571   2.578   2.594   2.680   2.690   2.720   2.761
103 A   104 A   105 A   102 B   103 B   104 B   106 A   107 A                  
  2.795   2.856   2.935   2.969   3.140   3.211   3.270   3.271
105 B   108 A   106 B   107 B   109 A   108 B   110 A   109 B                  
  3.396   3.430   3.709   3.754   3.943   4.011   4.236   4.300
111 A   110 B   112 A   111 B   113 A   112 B   114 A   113 B                  
  4.301   4.327   4.402   4.541   4.646   4.730
115 A   114 B   116 A   115 B   117 A   116 B                                  
 --------------------------------------------------------------
 
          Ground-State Mulliken Net Atomic Charges

     Atom                 Charge (a.u.)
  ----------------------------------------
      1 S                    -0.105467
      2 C                     0.003850
      3 C                    -0.341498
      4 C                     0.313182
      5 C                    -0.306211
      6 H                     0.119213
      7 C                    -0.306211
      8 S                    -0.105467
      9 C                     0.313182
     10 C                     0.003850
     11 C                    -0.341498
     12 H                     0.120623
     13 H                     0.196310
     14 H                     0.120623
     15 H                     0.196310
     16 H                     0.119213
  ----------------------------------------
  Sum of atomic charges =    -0.000000

 -----------------------------------------------------------------
                    Cartesian Multipole Moments
 -----------------------------------------------------------------
    Charge (ESU x 10^10)
                 0.0000
    Dipole Moment (Debye)
         X      -0.0000      Y      -0.0000      Z      -1.0266
       Tot       1.0266
    Quadrupole Moments (Debye-Ang)
        XX     -60.9067     XY      -0.4511     YY     -78.5450
        XZ      -0.0000     YZ      -0.0000     ZZ     -67.9798
    Octopole Moments (Debye-Ang^2)
       XXX      -0.0000    XXY      -0.0000    XYY      -0.0000
       YYY       0.0000    XXZ       4.5683    XYZ       5.3038
       YYZ       2.3089    XZZ       0.0000    YZZ       0.0000
       ZZZ     -10.0662
    Hexadecapole Moments (Debye-Ang^3)
      XXXX   -1880.9639   XXXY      -2.6171   XXYY    -423.3299
      XYYY       1.4233   YYYY    -122.0530   XXXZ      -0.0000
      XXYZ      -0.0000   XYYZ      -0.0000   YYYZ      -0.0000
      XXZZ    -406.7765   XYZZ      -6.1559   YYZZ    -122.5354
      XZZZ      -0.0000   YZZZ      -0.0000   ZZZZ    -544.4162
 -----------------------------------------------------------------
 Calculating analytic gradient of the SCF energy
 Gradient of SCF Energy
            1           2           3           4           5           6
    1   0.0000872  -0.0001299   0.0000797  -0.0000411  -0.0000689   0.0000106
    2  -0.0000629  -0.0000108  -0.0001359   0.0003002  -0.0002302   0.0001374
    3   0.0006985   0.0001380  -0.0001994  -0.0000052  -0.0003350  -0.0001877
            7           8           9          10          11          12
    1   0.0000689  -0.0000872   0.0000411   0.0001299  -0.0000797  -0.0000405
    2   0.0002302   0.0000629  -0.0003002   0.0000108   0.0001359   0.0000105
    3  -0.0003350   0.0006985  -0.0000052   0.0001380  -0.0001994  -0.0001354
           13          14          15          16
    1   0.0000770   0.0000405  -0.0000770  -0.0000106
    2   0.0000404  -0.0000105  -0.0000404  -0.0001374
    3   0.0000262  -0.0001354   0.0000262  -0.0001877
 Max gradient component =       6.985E-04
 RMS gradient           =       1.984E-04
 Gradient time:  CPU 1.90 s  wall 1.91 s
 Geometry Optimization Parameters
   NAtoms,    NIC,     NZ,  NCons,   NDum,   NFix, NCnnct, MaxDiis
       16     111       0       1       0       0       0       0

 Cartesian Hessian Update
 Hessian Updated using BFGS Update


** CONSTRAINED OPTIMIZATION IN DELOCALIZED INTERNAL COORDINATES **
   Searching for a Minimum

   Optimization Cycle:   3

                       Coordinates (Angstroms)
     ATOM                X               Y               Z
      1  S         1.6687403893    0.2407169996    1.1516550083
      2  C         3.1621066633    0.0477270976    0.2910202901
      3  C         2.9488587777   -0.1892095511   -1.0420361018
      4  C         1.5661628555   -0.2315053136   -1.3826660683
      5  C         0.7269060132   -0.0193985613   -0.3071517778
      6  H         1.1996843398   -0.4323919115   -2.3829161951
      7  C        -0.7269060132    0.0193985613   -0.3071517778
      8  S        -1.6687403893   -0.2407169996    1.1516550083
      9  C        -1.5661628555    0.2315053136   -1.3826660683
     10  C        -3.1621066633   -0.0477270976    0.2910202901
     11  C        -2.9488587777    0.1892095511   -1.0420361018
     12  H        -3.7502270045    0.3396301850   -1.7567222433
     13  H         4.1022846871    0.1212721236    0.8202638006
     14  H         3.7502270045   -0.3396301850   -1.7567222433
     15  H        -4.1022846871   -0.1212721236    0.8202638006
     16  H        -1.1996843398    0.4323919115   -2.3829161951
   Point Group: c2    Number of degrees of freedom:    22


   Energy is  -1104.839457137

              Constraints and their Current Values
                                        Value     Constraint
   Dihedral:        4   5   7   9      -20.000      -20.000
 Hessian Updated using BFGS Update

 21 Hessian modes will be used to form the next step
  Hessian Eigenvalues:
     0.026051    0.045001    0.045001    0.045008    0.045015    0.045920
     0.159835    0.160028    0.160270    0.209892    0.223614    0.273098
     0.300996    0.317264    0.357249    0.359057    0.362738    0.389795
     0.448793    0.473363    0.524362

 Minimum Search - Taking Simple RFO Step
 Searching for Lamda that Minimizes Along All modes
 Value Taken    Lamda =  -0.00001885
 Step Taken.  Stepsize is  0.024514

                             Maximum     Tolerance    Cnvgd?
         Gradient           0.000617      0.000300      NO
         Displacement       0.020300      0.001200      NO
         Energy change     -0.000038      0.000001      NO


 New Cartesian Coordinates Obtained by Inverse Iteration

 Displacement from previous Coordinates is:  0.055702
 ----------------------------------------------------------------
             Standard Nuclear Orientation (Angstroms)
    I     Atom           X                Y                Z
 ----------------------------------------------------------------
    1      S       1.6723934025     0.2449652598     1.1514476242
    2      C       3.1636179560     0.0512169120     0.2878336042
    3      C       2.9465146394    -0.1905889681    -1.0434652348
    4      C       1.5630110893    -0.2364987488    -1.3796049355
    5      C       0.7266856045    -0.0215879824    -0.3021656933
    6      H       1.1934227283    -0.4426858497    -2.3773459014
    7      C      -0.7266856045     0.0215879824    -0.3021656933
    8      S      -1.6723934025    -0.2449652598     1.1514476242
    9      C      -1.5630110893     0.2364987488    -1.3796049355
   10      C      -3.1636179560    -0.0512169120     0.2878336042
   11      C      -2.9465146394     0.1905889681    -1.0434652348
   12      H      -3.7461561423     0.3427791265    -1.7594535962
   13      H       4.1050591007     0.1276272062     0.8142008454
   14      H       3.7461561423    -0.3427791265    -1.7594535962
   15      H      -4.1050591007    -0.1276272062     0.8142008454
   16      H      -1.1934227283     0.4426858497    -2.3773459014
 ----------------------------------------------------------------
 Molecular Point Group                 C2    NOp =  2
 Largest Abelian Subgroup              C2    NOp =  2
 Nuclear Repulsion Energy =   631.4079286016 hartrees
 There are       43 alpha and       43 beta electrons
 Applying Cartesian multipole field
    Component          Value
    ---------          -----
     (2,0,0)        1.00000E-11
     (0,2,0)        2.00000E-11
     (0,0,2)       -3.00000E-11
 Nucleus-field energy     =     0.0000000044 hartrees
 Requested basis set is 6-31++G(d,p)
 There are 76 shells and 234 basis functions
 A cutoff of  1.0D-11 yielded   2495 shell pairs
 There are     24639 function pairs
 Smallest overlap matrix eigenvalue = 8.78E-07

 Q-Chem warning in module /project/projectdirs/jcesr/qchem/qc44/cnl_qc441/compile/cori/qc_src/stvman/mkSTV.C, line 257:

 Overlap eigenvalue is smaller than square root of threshold

 Linear dependence detected in AO basis
 Number of orthogonalized atomic orbitals = 233
 Maximum deviation from orthogonality = 4.994E-11
 Guess MOs from SCF MO coefficient file
 Reading MOs from coefficient file
 Reading MOs from coefficient file
 A restricted hybrid HF-DFT SCF calculation will be
 performed using Pulay DIIS extrapolation
 Exchange:     0.2000 Hartree-Fock + 0.0800 Slater + 0.7200 B88
 Correlation:  0.1900 VWN1RPA + 0.8100 LYP
 Using SG-1 standard quadrature grid
 SCF converges when DIIS error is below 1.0E-08
 Geometry optimization detected.  Setting ReadMinima to 0
 Setting SaveMinima to 0
 ---------------------------------------
  Cycle       Energy         DIIS Error
 ---------------------------------------
    1   -1104.8414351458      2.18E-04
    2   -1104.8394436654      5.59E-05
    3   -1104.8393745272      1.11E-04
    4   -1104.8394686280      1.20E-05
    5   -1104.8394696415      3.71E-06
    6   -1104.8394697169      1.74E-06
    7   -1104.8394697395      4.55E-07
    8   -1104.8394697414      1.39E-07
    9   -1104.8394697433      2.46E-08
   10   -1104.8394697434      8.01E-09 Convergence criterion met
 ---------------------------------------
 SCF time:  CPU 5.34 s  wall 4.71 s
 SCF   energy in the final basis set = -1104.8394697434
 Total energy in the final basis set = -1104.8394697434
 
 --------------------------------------------------------------
             Orbital Energies (a.u.) and Symmetries
 --------------------------------------------------------------
 
 Alpha MOs, Restricted
 -- Occupied --                  
-88.920 -88.920 -10.239 -10.239 -10.225 -10.225 -10.205 -10.205
  1 B     1 A     2 A     2 B     3 B     3 A     4 A     4 B                  
-10.203 -10.203  -7.979  -7.979  -5.944  -5.944  -5.940  -5.940
  5 B     5 A     6 B     6 A     7 B     7 A     8 B     8 A                  
 -5.937  -5.937  -0.900  -0.878  -0.771  -0.749  -0.737  -0.705
  9 A     9 B    10 A    10 B    11 A    12 A    11 B    12 B                  
 -0.604  -0.579  -0.554  -0.533  -0.527  -0.477  -0.421  -0.418
 13 A    14 A    13 B    14 B    15 A    15 B    16 A    17 A                  
 -0.409  -0.403  -0.401  -0.377  -0.374  -0.359  -0.344  -0.281
 16 B    17 B    18 A    18 B    19 A    20 A    19 B    20 B                  
 -0.264  -0.259  -0.213
 21 B    21 A    22 A                                                          
 -- Virtual --                   
 -0.057  -0.014  -0.004  -0.000   0.004   0.014   0.019   0.026
 22 B    23 A    24 A    23 B    25 A    26 A    24 B    27 A                  
  0.027   0.037   0.038   0.046   0.048   0.059   0.062   0.070
 25 B    28 A    26 B    29 A    27 B    30 A    28 B    29 B                  
  0.074   0.082   0.088   0.095   0.102   0.103   0.107   0.112
 31 A    30 B    31 B    32 A    32 B    33 A    34 A    35 A                  
  0.115   0.124   0.126   0.130   0.137   0.139   0.140   0.145
 33 B    36 A    34 B    37 A    35 B    38 A    36 B    39 A                  
  0.145   0.152   0.161   0.162   0.167   0.178   0.182   0.185
 40 A    37 B    41 A    38 B    39 B    40 B    42 A    41 B                  
  0.186   0.194   0.194   0.209   0.213   0.221   0.221   0.241
 43 A    42 B    44 A    43 B    45 A    46 A    44 B    45 B                  
  0.246   0.259   0.263   0.266   0.271   0.279   0.304   0.309
 47 A    46 B    48 A    47 B    49 A    48 B    50 A    49 B                  
  0.312   0.317   0.324   0.350   0.358   0.375   0.383   0.419
 51 A    52 A    50 B    53 A    51 B    52 B    54 A    53 B                  
  0.445   0.466   0.496   0.531   0.536   0.554   0.565   0.568
 55 A    56 A    54 B    57 A    55 B    56 B    57 B    58 A                  
  0.600   0.625   0.631   0.653   0.661   0.668   0.671   0.680
 59 A    60 A    58 B    61 A    59 B    60 B    62 A    63 A                  
  0.704   0.715   0.722   0.725   0.735   0.750   0.753   0.792
 64 A    61 B    65 A    62 B    63 B    64 B    66 A    67 A                  
  0.797   0.817   0.830   0.847   0.885   0.918   0.935   0.952
 65 B    66 B    68 A    67 B    69 A    68 B    70 A    71 A                  
  0.953   0.956   0.962   0.974   0.988   0.992   1.009   1.009
 69 B    72 A    70 B    71 B    73 A    72 B    73 B    74 A                  
  1.036   1.041   1.077   1.081   1.101   1.106   1.128   1.167
 75 A    76 A    74 B    77 A    75 B    78 A    76 B    77 B                  
  1.170   1.184   1.187   1.247   1.251   1.331   1.340   1.355
 79 A    78 B    80 A    79 B    81 A    80 B    82 A    81 B                  
  1.355   1.367   1.379   1.442   1.492   1.510   1.552   1.584
 83 A    82 B    84 A    83 B    85 A    84 B    86 A    85 B                  
  1.659   1.693   1.717   1.783   1.863   1.874   1.887   1.911
 86 B    87 A    87 B    88 A    89 A    90 A    88 B    89 B                  
  1.924   1.967   1.986   2.012   2.020   2.071   2.079   2.132
 91 A    92 A    90 B    91 B    93 A    94 A    92 B    95 A                  
  2.136   2.180   2.180   2.238   2.242   2.285   2.297   2.363
 93 B    96 A    94 B    95 B    97 A    96 B    98 A    97 B                  
  2.366   2.419   2.455   2.466   2.472   2.505   2.507   2.520
 99 A    98 B   100 A   101 A    99 B   100 B   102 A   101 B                  
  2.540   2.571   2.578   2.595   2.680   2.690   2.721   2.761
103 A   104 A   105 A   102 B   103 B   104 B   106 A   107 A                  
  2.795   2.856   2.935   2.968   3.140   3.212   3.270   3.272
105 B   108 A   106 B   107 B   109 A   108 B   110 A   109 B                  
  3.397   3.430   3.710   3.754   3.944   4.011   4.236   4.300
111 A   110 B   112 A   111 B   113 A   112 B   114 A   113 B                  
  4.301   4.327   4.402   4.540   4.646   4.729
115 A   114 B   116 A   115 B   117 A   116 B                                  
 
 Beta MOs, Restricted
 -- Occupied --                  
-88.920 -88.920 -10.239 -10.239 -10.225 -10.225 -10.205 -10.205
  1 B     1 A     2 A     2 B     3 B     3 A     4 A     4 B                  
-10.203 -10.203  -7.979  -7.979  -5.944  -5.944  -5.940  -5.940
  5 B     5 A     6 B     6 A     7 B     7 A     8 B     8 A                  
 -5.937  -5.937  -0.900  -0.878  -0.771  -0.749  -0.737  -0.705
  9 A     9 B    10 A    10 B    11 A    12 A    11 B    12 B                  
 -0.604  -0.579  -0.554  -0.533  -0.527  -0.477  -0.421  -0.418
 13 A    14 A    13 B    14 B    15 A    15 B    16 A    17 A                  
 -0.409  -0.403  -0.401  -0.377  -0.374  -0.359  -0.344  -0.281
 16 B    17 B    18 A    18 B    19 A    20 A    19 B    20 B                  
 -0.264  -0.259  -0.213
 21 B    21 A    22 A                                                          
 -- Virtual --                   
 -0.057  -0.014  -0.004  -0.000   0.004   0.014   0.019   0.026
 22 B    23 A    24 A    23 B    25 A    26 A    24 B    27 A                  
  0.027   0.037   0.038   0.046   0.048   0.059   0.062   0.070
 25 B    28 A    26 B    29 A    27 B    30 A    28 B    29 B                  
  0.074   0.082   0.088   0.095   0.102   0.103   0.107   0.112
 31 A    30 B    31 B    32 A    32 B    33 A    34 A    35 A                  
  0.115   0.124   0.126   0.130   0.137   0.139   0.140   0.145
 33 B    36 A    34 B    37 A    35 B    38 A    36 B    39 A                  
  0.145   0.152   0.161   0.162   0.167   0.178   0.182   0.185
 40 A    37 B    41 A    38 B    39 B    40 B    42 A    41 B                  
  0.186   0.194   0.194   0.209   0.213   0.221   0.221   0.241
 43 A    42 B    44 A    43 B    45 A    46 A    44 B    45 B                  
  0.246   0.259   0.263   0.266   0.271   0.279   0.304   0.309
 47 A    46 B    48 A    47 B    49 A    48 B    50 A    49 B                  
  0.312   0.317   0.324   0.350   0.358   0.375   0.383   0.419
 51 A    52 A    50 B    53 A    51 B    52 B    54 A    53 B                  
  0.445   0.466   0.496   0.531   0.536   0.554   0.565   0.568
 55 A    56 A    54 B    57 A    55 B    56 B    57 B    58 A                  
  0.600   0.625   0.631   0.653   0.661   0.668   0.671   0.680
 59 A    60 A    58 B    61 A    59 B    60 B    62 A    63 A                  
  0.704   0.715   0.722   0.725   0.735   0.750   0.753   0.792
 64 A    61 B    65 A    62 B    63 B    64 B    66 A    67 A                  
  0.797   0.817   0.830   0.847   0.885   0.918   0.935   0.952
 65 B    66 B    68 A    67 B    69 A    68 B    70 A    71 A                  
  0.953   0.956   0.962   0.974   0.988   0.992   1.009   1.009
 69 B    72 A    70 B    71 B    73 A    72 B    73 B    74 A                  
  1.036   1.041   1.077   1.081   1.101   1.106   1.128   1.167
 75 A    76 A    74 B    77 A    75 B    78 A    76 B    77 B                  
  1.170   1.184   1.187   1.247   1.251   1.331   1.340   1.355
 79 A    78 B    80 A    79 B    81 A    80 B    82 A    81 B                  
  1.355   1.367   1.379   1.442   1.492   1.510   1.552   1.584
 83 A    82 B    84 A    83 B    85 A    84 B    86 A    85 B                  
  1.659   1.693   1.717   1.783   1.863   1.874   1.887   1.911
 86 B    87 A    87 B    88 A    89 A    90 A    88 B    89 B                  
  1.924   1.967   1.986   2.012   2.020   2.071   2.079   2.132
 91 A    92 A    90 B    91 B    93 A    94 A    92 B    95 A                  
  2.136   2.180   2.180   2.238   2.242   2.285   2.297   2.363
 93 B    96 A    94 B    95 B    97 A    96 B    98 A    97 B                  
  2.366   2.419   2.455   2.466   2.472   2.505   2.507   2.520
 99 A    98 B   100 A   101 A    99 B   100 B   102 A   101 B                  
  2.540   2.571   2.578   2.595   2.680   2.690   2.721   2.761
103 A   104 A   105 A   102 B   103 B   104 B   106 A   107 A                  
  2.795   2.856   2.935   2.968   3.140   3.212   3.270   3.272
105 B   108 A   106 B   107 B   109 A   108 B   110 A   109 B                  
  3.397   3.430   3.710   3.754   3.944   4.011   4.236   4.300
111 A   110 B   112 A   111 B   113 A   112 B   114 A   113 B                  
  4.301   4.327   4.402   4.540   4.646   4.729
115 A   114 B   116 A   115 B   117 A   116 B                                  
 --------------------------------------------------------------
 
          Ground-State Mulliken Net Atomic Charges

     Atom                 Charge (a.u.)
  ----------------------------------------
      1 S                    -0.101947
      2 C                     0.004839
      3 C                    -0.343930
      4 C                     0.313780
      5 C                    -0.309225
      6 H                     0.119822
      7 C                    -0.309225
      8 S                    -0.101947
      9 C                     0.313780
     10 C                     0.004839
     11 C                    -0.343930
     12 H                     0.120469
     13 H                     0.196193
     14 H                     0.120469
     15 H                     0.196193
     16 H                     0.119822
  ----------------------------------------
  Sum of atomic charges =     0.000000

 -----------------------------------------------------------------
                    Cartesian Multipole Moments
 -----------------------------------------------------------------
    Charge (ESU x 10^10)
                -0.0000
    Dipole Moment (Debye)
         X      -0.0000      Y       0.0000      Z      -1.0269
       Tot       1.0269
    Quadrupole Moments (Debye-Ang)
        XX     -60.8980     XY      -0.4295     YY     -78.5190
        XZ      -0.0000     YZ       0.0000     ZZ     -68.0208
    Octopole Moments (Debye-Ang^2)
       XXX      -0.0000    XXY      -0.0000    XYY      -0.0000
       YYY      -0.0000    XXZ       4.5195    XYZ       5.3932
       YYZ       2.2567    XZZ       0.0000    YZZ      -0.0000
       ZZZ     -10.1143
    Hexadecapole Moments (Debye-Ang^3)
      XXXX   -1881.0248   XXXY      -2.5730   XXYY    -423.3904
      XYYY       0.7772   YYYY    -122.7015   XXXZ      -0.0000
      XXYZ       0.0000   XYYZ      -0.0000   YYYZ       0.0000
      XXZZ    -407.0998   XYZZ      -6.4086   YYZZ    -122.3438
      XZZZ      -0.0000   YZZZ       0.0000   ZZZZ    -543.9350
 -----------------------------------------------------------------
 Calculating analytic gradient of the SCF energy
 Gradient of SCF Energy
            1           2           3           4           5           6
    1   0.0000919  -0.0000269   0.0000185  -0.0000560  -0.0002526   0.0000395
    2  -0.0001938  -0.0000581   0.0000016   0.0003543  -0.0005105   0.0001102
    3   0.0000163  -0.0000035  -0.0000160  -0.0001225   0.0001527  -0.0000093
            7           8           9          10          11          12
    1   0.0002526  -0.0000919   0.0000560   0.0000269  -0.0000185   0.0000078
    2   0.0005105   0.0001938  -0.0003543   0.0000581  -0.0000016  -0.0000109
    3   0.0001527   0.0000163  -0.0001225  -0.0000035  -0.0000160  -0.0000015
           13          14          15          16
    1   0.0000215  -0.0000078  -0.0000215  -0.0000395
    2   0.0000566   0.0000109  -0.0000566  -0.0001102
    3  -0.0000160  -0.0000015  -0.0000160  -0.0000093
 Max gradient component =       5.105E-04
 RMS gradient           =       1.528E-04
 Gradient time:  CPU 1.97 s  wall 1.91 s
 Geometry Optimization Parameters
   NAtoms,    NIC,     NZ,  NCons,   NDum,   NFix, NCnnct, MaxDiis
       16     111       0       1       0       0       0       0

 Cartesian Hessian Update
 Hessian Updated using BFGS Update


** CONSTRAINED OPTIMIZATION IN DELOCALIZED INTERNAL COORDINATES **
   Searching for a Minimum

   Optimization Cycle:   4

                       Coordinates (Angstroms)
     ATOM                X               Y               Z
      1  S         1.6723934025    0.2449652598    1.1514476242
      2  C         3.1636179560    0.0512169120    0.2878336042
[...]
  3.397   3.429   3.710   3.753   3.945   4.010   4.237   4.300
111 A   110 B   112 A   111 B   113 A   112 B   114 A   113 B                  
  4.301   4.327   4.402   4.540   4.646   4.730
115 A   114 B   116 A   115 B   117 A   116 B                                  
 --------------------------------------------------------------
 
          Ground-State Mulliken Net Atomic Charges

     Atom                 Charge (a.u.)
  ----------------------------------------
      1 S                    -0.099933
      2 C                     0.008619
      3 C                    -0.350433
      4 C                     0.325213
      5 C                    -0.321328
      6 H                     0.121649
      7 C                    -0.321328
      8 S                    -0.099933
      9 C                     0.325213
     10 C                     0.008619
     11 C                    -0.350433
     12 H                     0.120169
     13 H                     0.196045
     14 H                     0.120169
     15 H                     0.196045
     16 H                     0.121649
  ----------------------------------------
  Sum of atomic charges =    -0.000000

 -----------------------------------------------------------------
                    Cartesian Multipole Moments
 -----------------------------------------------------------------
    Charge (ESU x 10^10)
                -0.0000
    Dipole Moment (Debye)
         X      -0.0000      Y      -0.0000      Z      -1.0246
       Tot       1.0246
    Quadrupole Moments (Debye-Ang)
        XX     -60.8996     XY      -0.4288     YY     -78.4723
        XZ      -0.0000     YZ       0.0000     ZZ     -68.0622
    Octopole Moments (Debye-Ang^2)
       XXX      -0.0000    XXY      -0.0000    XYY      -0.0000
       YYY       0.0000    XXZ       4.6230    XYZ       5.6633
       YYZ       2.3015    XZZ      -0.0000    YZZ      -0.0000
       ZZZ      -9.7372
    Hexadecapole Moments (Debye-Ang^3)
      XXXX   -1880.6857   XXXY      -3.7246   XXYY    -423.2401
      XYYY      -0.8777   YYYY    -124.6576   XXXZ      -0.0000
      XXYZ      -0.0000   XYYZ      -0.0000   YYYZ       0.0000
      XXZZ    -407.0886   XYZZ      -7.0876   YYZZ    -122.0107
      XZZZ      -0.0000   YZZZ       0.0000   ZZZZ    -542.6254
 -----------------------------------------------------------------
 Calculating analytic gradient of the SCF energy
 Gradient of SCF Energy
            1           2           3           4           5           6
    1  -0.0000466   0.0000240  -0.0000483   0.0000688   0.0000078  -0.0000052
    2  -0.0000200  -0.0000306   0.0000125   0.0008639  -0.0017814  -0.0000187
    3  -0.0000985   0.0000165  -0.0000084  -0.0001995   0.0002620   0.0000172
            7           8           9          10          11          12
    1  -0.0000078   0.0000466  -0.0000688  -0.0000240   0.0000483  -0.0000038
    2   0.0017814   0.0000200  -0.0008639   0.0000306  -0.0000125  -0.0000019
    3   0.0002620  -0.0000985  -0.0001995   0.0000165  -0.0000084   0.0000113
           13          14          15          16
    1  -0.0000120   0.0000038   0.0000120   0.0000052
    2   0.0000223   0.0000019  -0.0000223   0.0000187
    3  -0.0000004   0.0000113  -0.0000004   0.0000172
 Max gradient component =       1.781E-03
 RMS gradient           =       4.108E-04
 Gradient time:  CPU 2.01 s  wall 1.95 s
 Geometry Optimization Parameters
   NAtoms,    NIC,     NZ,  NCons,   NDum,   NFix, NCnnct, MaxDiis
       16     111       0       1       0       0       0       0

 Cartesian Hessian Update
 Hessian Updated using BFGS Update


** CONSTRAINED OPTIMIZATION IN DELOCALIZED INTERNAL COORDINATES **
   Searching for a Minimum

   Optimization Cycle:   7

                       Coordinates (Angstroms)
     ATOM                X               Y               Z
      1  S         1.6716436137    0.2592908292    1.1476925101
      2  C         3.1632218699    0.0594306709    0.2862185437
      3  C         2.9465996741   -0.1951334281   -1.0428217876
      4  C         1.5631706662   -0.2463541190   -1.3787379544
      5  C         0.7266937383   -0.0262580286   -0.3026284711
      6  H         1.1931901049   -0.4648507974   -2.3737512448
      7  C        -0.7266937383    0.0262580286   -0.3026284711
      8  S        -1.6716436137   -0.2592908292    1.1476925101
      9  C        -1.5631706662    0.2463541190   -1.3787379544
     10  C        -3.1632218699   -0.0594306709    0.2862185437
     11  C        -2.9465996741    0.1951334281   -1.0428217876
     12  H        -3.7466676069    0.3536743111   -1.7569654996
     13  H         4.1044082511    0.1395623137    0.8124406164
     14  H         3.7466676069   -0.3536743111   -1.7569654996
     15  H        -4.1044082511   -0.1395623137    0.8124406164
     16  H        -1.1931901049    0.4648507974   -2.3737512448
   Point Group: c2    Number of degrees of freedom:    22


   Energy is  -1104.839482220

              Constraints and their Current Values
                                        Value     Constraint
   Dihedral:        4   5   7   9      -20.000      -20.000
 Hessian Updated using BFGS Update

 21 Hessian modes will be used to form the next step
  Hessian Eigenvalues:
     0.008605    0.039606    0.045002    0.045005    0.045024    0.045844
     0.152364    0.159924    0.160492    0.179985    0.223581    0.277005
     0.279439    0.316736    0.357272    0.359921    0.361949    0.391315
     0.442628    0.473366    0.536304

 Minimum Search - Taking Simple RFO Step
 Searching for Lamda that Minimizes Along All modes
 Value Taken    Lamda =   0.00000000
 Step Taken.  Stepsize is  0.001568

                             Maximum     Tolerance    Cnvgd?
         Gradient           0.000090      0.000300     YES
         Displacement       0.001207      0.001200      NO
         Energy change     -0.000001      0.000001     YES

 Final energy is   -1104.83948221963     


 ******************************
 **  OPTIMIZATION CONVERGED  **
 ******************************

                       Coordinates (Angstroms)
     ATOM                X               Y               Z
      1  S         1.6716436137    0.2592908292    1.1476925101
      2  C         3.1632218699    0.0594306709    0.2862185437
      3  C         2.9465996741   -0.1951334281   -1.0428217876
      4  C         1.5631706662   -0.2463541190   -1.3787379544
      5  C         0.7266937383   -0.0262580286   -0.3026284711
      6  H         1.1931901049   -0.4648507974   -2.3737512448
      7  C        -0.7266937383    0.0262580286   -0.3026284711
      8  S        -1.6716436137   -0.2592908292    1.1476925101
      9  C        -1.5631706662    0.2463541190   -1.3787379544
     10  C        -3.1632218699   -0.0594306709    0.2862185437
     11  C        -2.9465996741    0.1951334281   -1.0428217876
     12  H        -3.7466676069    0.3536743111   -1.7569654996
     13  H         4.1044082511    0.1395623137    0.8124406164
     14  H         3.7466676069   -0.3536743111   -1.7569654996
     15  H        -4.1044082511   -0.1395623137    0.8124406164
     16  H        -1.1931901049    0.4648507974   -2.3737512448

Z-matrix Print:
$molecule
0 1
S 
C  1 1.734038
H  2 1.081278 1 119.895002
C  2 1.370429 1 111.545541 3 -179.856525 0
H  4 1.084087 2 123.323454 1 179.864604 0
C  4 1.424549 2 112.884133 1 0.653546 0
H  6 1.083826 4 123.727461 2 178.129719 0
C  6 1.380633 4 113.506325 2 -0.177110 0
C  8 1.454336 6 127.678217 4 -178.189378 0
C  9 1.380633 8 127.678217 6 20.000025 0
H  10 1.083826 9 122.743528 8 3.484840 0
C  10 1.424549 9 113.506325 8 -178.189378 0
H  12 1.084087 10 123.787382 9 -179.383919 0
C  12 1.370429 10 112.884133 9 -0.177110 0
H  14 1.081278 12 128.559272 10 -179.187387 0
S  14 1.734038 12 111.545541 10 0.653546 0
$end

 
 --------------------------------------------------------------
             Orbital Energies (a.u.) and Symmetries
 --------------------------------------------------------------
 
 Alpha MOs, Restricted
 -- Occupied --                  
-88.920 -88.920 -10.239 -10.239 -10.225 -10.225 -10.205 -10.205
  1 B     1 A     2 A     2 B     3 B     3 A     4 A     4 B                  
-10.203 -10.203  -7.979  -7.979  -5.944  -5.944  -5.940  -5.940
  5 B     5 A     6 B     6 A     7 B     7 A     8 B     8 A                  
 -5.937  -5.937  -0.900  -0.878  -0.771  -0.749  -0.737  -0.705
  9 A     9 B    10 A    10 B    11 A    12 A    11 B    12 B                  
 -0.604  -0.579  -0.554  -0.533  -0.527  -0.477  -0.421  -0.418
 13 A    14 A    13 B    14 B    15 A    15 B    16 A    17 A                  
 -0.409  -0.403  -0.401  -0.377  -0.374  -0.359  -0.344  -0.280
 16 B    17 B    18 A    18 B    19 A    20 A    19 B    20 B                  
 -0.264  -0.259  -0.213
 21 B    21 A    22 A                                                          
 -- Virtual --                   
 -0.057  -0.014  -0.004  -0.000   0.004   0.014   0.019   0.026
 22 B    23 A    24 A    23 B    25 A    26 A    24 B    27 A                  
  0.027   0.037   0.038   0.047   0.047   0.059   0.061   0.070
 25 B    28 A    26 B    29 A    27 B    30 A    28 B    29 B                  
  0.074   0.081   0.088   0.095   0.102   0.104   0.107   0.112
 31 A    30 B    31 B    32 A    32 B    33 A    34 A    35 A                  
  0.115   0.124   0.126   0.130   0.137   0.139   0.140   0.145
 33 B    36 A    34 B    37 A    35 B    38 A    36 B    39 A                  
  0.145   0.152   0.161   0.162   0.166   0.179   0.182   0.185
 40 A    37 B    38 B    41 A    39 B    40 B    42 A    41 B                  
  0.186   0.194   0.194   0.209   0.214   0.220   0.221   0.240
 43 A    42 B    44 A    43 B    45 A    44 B    46 A    45 B                  
  0.247   0.258   0.264   0.265   0.270   0.277   0.304   0.309
 47 A    46 B    48 A    47 B    49 A    48 B    50 A    49 B                  
  0.312   0.317   0.324   0.350   0.358   0.374   0.383   0.420
 51 A    52 A    50 B    53 A    51 B    52 B    54 A    53 B                  
  0.445   0.466   0.496   0.531   0.536   0.553   0.564   0.569
 55 A    56 A    54 B    57 A    55 B    56 B    57 B    58 A                  
  0.601   0.625   0.628   0.653   0.662   0.667   0.671   0.681
 59 A    60 A    58 B    61 A    59 B    60 B    62 A    63 A                  
  0.704   0.715   0.722   0.726   0.737   0.750   0.752   0.792
 64 A    61 B    65 A    62 B    63 B    64 B    66 A    67 A                  
  0.796   0.818   0.830   0.848   0.885   0.918   0.936   0.951
 65 B    66 B    68 A    67 B    69 A    68 B    70 A    71 A                  
  0.953   0.957   0.962   0.972   0.989   0.990   1.009   1.010
 69 B    72 A    70 B    71 B    73 A    72 B    73 B    74 A                  
  1.036   1.042   1.076   1.081   1.100   1.106   1.128   1.167
 75 A    76 A    74 B    77 A    75 B    78 A    76 B    77 B                  
  1.170   1.182   1.187   1.245   1.251   1.329   1.339   1.355
 79 A    78 B    80 A    79 B    81 A    80 B    82 A    81 B                  
  1.356   1.367   1.381   1.440   1.492   1.512   1.552   1.580
 83 A    82 B    84 A    83 B    85 A    84 B    86 A    85 B                  
  1.664   1.693   1.718   1.783   1.864   1.874   1.886   1.911
 86 B    87 A    87 B    88 A    89 A    90 A    88 B    89 B                  
  1.924   1.964   1.985   2.013   2.020   2.070   2.078   2.133
 91 A    92 A    90 B    91 B    93 A    94 A    92 B    95 A                  
  2.137   2.180   2.183   2.238   2.242   2.283   2.298   2.363
 93 B    94 B    96 A    95 B    97 A    96 B    98 A    97 B                  
  2.366   2.419   2.455   2.465   2.473   2.504   2.507   2.520
 99 A    98 B   100 A   101 A    99 B   100 B   102 A   101 B                  
  2.540   2.571   2.579   2.594   2.680   2.690   2.721   2.762
103 A   104 A   105 A   102 B   103 B   104 B   106 A   107 A                  
  2.794   2.856   2.935   2.968   3.140   3.212   3.270   3.272
105 B   108 A   106 B   107 B   109 A   108 B   110 A   109 B                  
  3.397   3.429   3.710   3.753   3.945   4.010   4.237   4.300
111 A   110 B   112 A   111 B   113 A   112 B   114 A   113 B                  
  4.301   4.327   4.402   4.540   4.646   4.730
115 A   114 B   116 A   115 B   117 A   116 B                                  
 
 Beta MOs, Restricted
 -- Occupied --                  
-88.920 -88.920 -10.239 -10.239 -10.225 -10.225 -10.205 -10.205
  1 B     1 A     2 A     2 B     3 B     3 A     4 A     4 B                  
-10.203 -10.203  -7.979  -7.979  -5.944  -5.944  -5.940  -5.940
  5 B     5 A     6 B     6 A     7 B     7 A     8 B     8 A                  
 -5.937  -5.937  -0.900  -0.878  -0.771  -0.749  -0.737  -0.705
  9 A     9 B    10 A    10 B    11 A    12 A    11 B    12 B                  
 -0.604  -0.579  -0.554  -0.533  -0.527  -0.477  -0.421  -0.418
 13 A    14 A    13 B    14 B    15 A    15 B    16 A    17 A                  
 -0.409  -0.403  -0.401  -0.377  -0.374  -0.359  -0.344  -0.280
 16 B    17 B    18 A    18 B    19 A    20 A    19 B    20 B                  
 -0.264  -0.259  -0.213
 21 B    21 A    22 A                                                          
 -- Virtual --                   
 -0.057  -0.014  -0.004  -0.000   0.004   0.014   0.019   0.026
 22 B    23 A    24 A    23 B    25 A    26 A    24 B    27 A                  
  0.027   0.037   0.038   0.047   0.047   0.059   0.061   0.070
 25 B    28 A    26 B    29 A    27 B    30 A    28 B    29 B                  
  0.074   0.081   0.088   0.095   0.102   0.104   0.107   0.112
 31 A    30 B    31 B    32 A    32 B    33 A    34 A    35 A                  
  0.115   0.124   0.126   0.130   0.137   0.139   0.140   0.145
 33 B    36 A    34 B    37 A    35 B    38 A    36 B    39 A                  
  0.145   0.152   0.161   0.162   0.166   0.179   0.182   0.185
 40 A    37 B    38 B    41 A    39 B    40 B    42 A    41 B                  
  0.186   0.194   0.194   0.209   0.214   0.220   0.221   0.240
 43 A    42 B    44 A    43 B    45 A    44 B    46 A    45 B                  
  0.247   0.258   0.264   0.265   0.270   0.277   0.304   0.309
 47 A    46 B    48 A    47 B    49 A    48 B    50 A    49 B                  
  0.312   0.317   0.324   0.350   0.358   0.374   0.383   0.420
 51 A    52 A    50 B    53 A    51 B    52 B    54 A    53 B                  
  0.445   0.466   0.496   0.531   0.536   0.553   0.564   0.569
 55 A    56 A    54 B    57 A    55 B    56 B    57 B    58 A                  
  0.601   0.625   0.628   0.653   0.662   0.667   0.671   0.681
 59 A    60 A    58 B    61 A    59 B    60 B    62 A    63 A                  
  0.704   0.715   0.722   0.726   0.737   0.750   0.752   0.792
 64 A    61 B    65 A    62 B    63 B    64 B    66 A    67 A                  
  0.796   0.818   0.830   0.848   0.885   0.918   0.936   0.951
 65 B    66 B    68 A    67 B    69 A    68 B    70 A    71 A                  
  0.953   0.957   0.962   0.972   0.989   0.990   1.009   1.010
 69 B    72 A    70 B    71 B    73 A    72 B    73 B    74 A                  
  1.036   1.042   1.076   1.081   1.100   1.106   1.128   1.167
 75 A    76 A    74 B    77 A    75 B    78 A    76 B    77 B                  
  1.170   1.182   1.187   1.245   1.251   1.329   1.339   1.355
 79 A    78 B    80 A    79 B    81 A    80 B    82 A    81 B                  
  1.356   1.367   1.381   1.440   1.492   1.512   1.552   1.580
 83 A    82 B    84 A    83 B    85 A    84 B    86 A    85 B                  
  1.664   1.693   1.718   1.783   1.864   1.874   1.886   1.911
 86 B    87 A    87 B    88 A    89 A    90 A    88 B    89 B                  
  1.924   1.964   1.985   2.013   2.020   2.070   2.078   2.133
 91 A    92 A    90 B    91 B    93 A    94 A    92 B    95 A                  
  2.137   2.180   2.183   2.238   2.242   2.283   2.298   2.363
 93 B    94 B    96 A    95 B    97 A    96 B    98 A    97 B                  
  2.366   2.419   2.455   2.465   2.473   2.504   2.507   2.520
 99 A    98 B   100 A   101 A    99 B   100 B   102 A   101 B                  
  2.540   2.571   2.579   2.594   2.680   2.690   2.721   2.762
103 A   104 A   105 A   102 B   103 B   104 B   106 A   107 A                  
  2.794   2.856   2.935   2.968   3.140   3.212   3.270   3.272
105 B   108 A   106 B   107 B   109 A   108 B   110 A   109 B                  
  3.397   3.429   3.710   3.753   3.945   4.010   4.237   4.300
111 A   110 B   112 A   111 B   113 A   112 B   114 A   113 B                  
  4.301   4.327   4.402   4.540   4.646   4.730
115 A   114 B   116 A   115 B   117 A   116 B                                  
 --------------------------------------------------------------
 
          Ground-State Mulliken Net Atomic Charges

     Atom                 Charge (a.u.)
  ----------------------------------------
      1 S                    -0.099933
      2 C                     0.008619
      3 C                    -0.350433
      4 C                     0.325213
      5 C                    -0.321328
      6 H                     0.121649
      7 C                    -0.321328
      8 S                    -0.099933
      9 C                     0.325213
     10 C                     0.008619
     11 C                    -0.350433
     12 H                     0.120169
     13 H                     0.196045
     14 H                     0.120169
     15 H                     0.196045
     16 H                     0.121649
  ----------------------------------------
  Sum of atomic charges =    -0.000000

 -----------------------------------------------------------------
                    Cartesian Multipole Moments
 -----------------------------------------------------------------
    Charge (ESU x 10^10)
                -0.0000
    Dipole Moment (Debye)
         X      -0.0000      Y      -0.0000      Z      -1.0246
       Tot       1.0246
    Quadrupole Moments (Debye-Ang)
        XX     -60.8996     XY      -0.4288     YY     -78.4723
        XZ      -0.0000     YZ       0.0000     ZZ     -68.0622
    Octopole Moments (Debye-Ang^2)
       XXX      -0.0000    XXY      -0.0000    XYY      -0.0000
       YYY       0.0000    XXZ       4.6230    XYZ       5.6633
       YYZ       2.3015    XZZ      -0.0000    YZZ      -0.0000
       ZZZ      -9.7372
    Hexadecapole Moments (Debye-Ang^3)
      XXXX   -1880.6857   XXXY      -3.7246   XXYY    -423.2401
      XYYY      -0.8777   YYYY    -124.6576   XXXZ      -0.0000
      XXYZ      -0.0000   XYYZ      -0.0000   YYYZ       0.0000
      XXZZ    -407.0886   XYZZ      -7.0876   YYZZ    -122.0107
      XZZZ      -0.0000   YZZZ       0.0000   ZZZZ    -542.6254
 -----------------------------------------------------------------
Archival summary:
1\1\nid01043\OPT\ProcedureUnspecified\BasisUnspecified\286\FriSep218:28:112016FriSep218:28:112016\0\\#,OPT,ProcedureUnspecified,BasisUnspecified,\\0,1\S\C,1,1.73404\H,2,1.08128,1,119.895\C,2,1.37043,1,111.546,3,-179.857,0\H,4,1.08409,2,123.323,1,179.865,0\C,4,1.42455,2,112.884,1,0.653546,0\H,6,1.08383,4,123.727,2,178.13,0\C,6,1.38063,4,113.506,2,-0.17711,0\C,8,1.45434,6,127.678,4,-178.189,0\C,9,1.38063,8,127.678,6,20,0\H,10,1.08383,9,122.744,8,3.48484,0\C,10,1.42455,9,113.506,8,-178.189,0\H,12,1.08409,10,123.787,9,-179.384,0\C,12,1.37043,10,112.884,9,-0.17711,0\H,14,1.08128,12,128.559,10,-179.187,0\S,14,1.73404,12,111.546,10,0.653546,0\\\@

 Total job time:  53.22s(wall), 59.09s(cpu) 
 Fri Sep  2 18:28:11 2016

        *************************************************************
        *                                                           *
        *  Thank you very much for using Q-Chem.  Have a nice day.  *
        *                                                           *
        *************************************************************


0 sent ACK to 0 
now end server 0 ... 
