srun -N 1 --ntasks-per-node 16 --nodelist nid01044 /global/project/projectdirs/jcesr/qchem/qc44/cnl_qc441/dist/exe/qcprog.cori.exe .pt_dft_110.0.in.64717.qcin.1 /dev/shm/eg_qchem/qchem64717/
Process 1 of 16 is on nid01044 - thread support 0
Process 2 of 16 is on nid01044 - thread support 0
Process 3 of 16 is on nid01044 - thread support 0
Process 4 of 16 is on nid01044 - thread support 0
Process 5 of 16 is on nid01044 - thread support 0
Process 6 of 16 is on nid01044 - thread support 0
Process 0 of 16 is on nid01044 - thread support 0
Process 15 of 16 is on nid01044 - thread support 0
initial socket setup ...start
initial socket setup ...done 
now start server 0 ... 
nid01044 10.128.4
Q-Chem Developer Version! Running on 10.128.4.*
                  Welcome to Q-Chem
     A Quantum Leap Into The Future Of Chemistry


 Q-Chem 4.4, Q-Chem, Inc., Pleasanton, CA (2016)

 Y. Shao,  Z. Gan,  E. Epifanovsky,  A. T. B. Gilbert,  M. Wormit,  
 J. Kussmann,  A. W. Lange,  A. Behn,  J. Deng,  X. Feng,  D. Ghosh,  
 M. Goldey,  P. R. Horn,  L. D. Jacobson,  I. Kaliman,  F.Rob,  
 R. Z. Khaliullin,  T. Kus,  A. Landau,  J. Liu,  E. I. Proynov,  Y. M. Rhee,  
 R. M. Richard,  M. A. Rohrdanz,  R. P. Steele,  E. J. Sundstrom,  
 H. L. Woodcock III,  P. M. Zimmerman,  D. Zuev,  B. Albrecht,  E. Alguire,  
 B. Austin,  S. A. Baeppler,  G. J. O. Beran,  Y. A. Bernard,  E. Berquist,  
 K. Brandhorst,  K. B. Bravaya,  S. T. Brown,  D. Casanova,  C.-M. Chang,  
 Y. Chen,  S. H. Chien,  K. D. Closser,  M. P. Coons,  D. L. Crittenden,  
 S. Dasgupta,  M. Diedenhofen,  R. A. DiStasio Jr.,  H. Do,  A. D. Dutoi,  
 R. G. Edgar,  P.-T. Fang,  S. Fatehi,  Q. Feng,  L. Fusti-Molnar,  
 A. Ghysels,  A. Golubeva-Zadorozhnaya,  J. Gomes,  A. Gunina,  
 M. W. D. Hanson-Heine,  P. H. P. Harbach,  A. W. Hauser,  E. G. Hohenstein,  
 Z. C. Holden,  K. Hui,  T.-C. Jagau,  H. Ji,  B. Kaduk,  K. Khistyaev,  
 Jaehoon Kim,  Jihan Kim,  R. A. King,  P. Klunzinger,  D. Kosenkov,  
 T. Kowalczyk,  C. M. Krauter,  A. Kunitsa,  K. U. Lao,  A. Laurent,  
 K. V. Lawler,  D. Lefrancois,  S. Lehtola,  S. V. Levchenko,  C. Y. Lin,  
 Y.-S. Lin,  F. Liu,  E. Livshits,  R. C. Lochan,  A. Luenser,  P. Manohar,  
 S. F. Manzer,  S.-P. Mao,  Y. Mao,  N. Mardirossian,  A. V. Marenich,  
 L. A. Martinez-Martinez,  S. A. Maurer,  N. J. Mayhall,  J.-M. Mewes,  
 A. F. Morrison,  K. Nanda,  C. M. Oana,  R. Olivares-Amaya,  D. P. O'Neill,  
 J. A. Parkhill,  T. M. Perrine,  R. Peverati,  P. A. Pieniazek,  F. Plasser,  
 A. Prociuk,  D. R. Rehn,  E. Rosta,  N. J. Russ,  N. Sergueev,  
 S. M. Sharada,  S. Sharma,  D. W. Small,  A. Sodt,  T. Stauch,  T. Stein,  
 D. Stuck,  Y.-C. Su,  A. J. W. Thom,  T. Tsuchimochi,  L. Vogt,  O. Vydrov,  
 T. Wang,  M. A. Watson,  J. Wenzel,  A. White,  C. F. Williams,  
 V. Vanovschi,  S. Yeganeh,  S. R. Yost,  Z.-Q. You,  I. Y. Zhang,  X. Zhang,  
 Y. Zhao,  B. R. Brooks,  G. K. L. Chan,  D. M. Chipman,  C. J. Cramer,  
 W. A. Goddard III,  M. S. Gordon,  W. J. Hehre,  A. Klamt,  
 H. F. Schaefer III,  M. W. Schmidt,  C. D. Sherrill,  D. G. Truhlar,  
 A. Warshel,  X. Xu,  A. Aspuru-Guzik,  R. Baer,  A. T. Bell,  N. A. Besley,  
 J.-D. Chai,  A. Dreuw,  B. D. Dunietz,  T. R. Furlani,  S. R. Gwaltney,  
 C.-P. Hsu,  Y. Jung,  J. Kong,  D. S. Lambrecht,  W. Liang,  C. Ochsenfeld,  
 V. A. Rassolov,  L. V. Slipchenko,  J. E. Subotnik,  T. Van Voorhis,  
 J. M. Herbert,  A. I. Krylov,  P. M. W. Gill,  M. Head-Gordon

 Contributors to earlier versions of Q-Chem not listed above: 
 R. D. Adamson,  J. Baker,  E. F. C. Byrd,  A. K. Chakraborty,  C.-L. Cheng,  
 H. Dachsel,  R. J. Doerksen,  G. Hawkins,  A. Heyden,  S. Hirata,  
 G. Kedziora,  F. J. Keil,  C. Kelley,  P. P. Korambath,  W. Kurlancheek,  
 A. M. Lee,  M. S. Lee,  D. Liotard,  I. Lotan,  P. E. Maslen,  N. Nair,  
 D. Neuhauser,  R. Olson,  B. Peters,  J. Ritchie,  N. E. Schultz,  
 N. Shenvi,  A. C. Simmonett,  K. S. Thanthiriwatte,  Q. Wu,  W. Zhang

 Please cite Q-Chem as follows:
 Y. Shao et al., Mol. Phys. 113, 184-215 (2015)
 DOI: 10.1080/00268976.2014.952696

 Q-Chem 4.4.1 for Intel X86 EM64T Linux

 Parts of Q-Chem use Armadillo 5.200.1 (Boston Tea Smuggler).
 http://arma.sourceforge.net/

 Q-Chem begins on Fri Sep  2 18:56:00 2016  

Host: nid01043
0

     Scratch files written to /dev/shm/eg_qchem/qchem64717.0//
 Parallel job on  16  processors

Checking the input file for inconsistencies... 	...done.

--------------------------------------------------------------
User input:
--------------------------------------------------------------
$comment
<SCF Fix Strategy>{
    "current_method_id": 1, 
    "methods": [
        "increase_iter", 
        "rca_diis", 
        "gwh", 
        "gdm", 
        "rca", 
        "core+rca", 
        "fon"
    ], 
    "version": 2.0
}</SCF Fix Strategy>
$end


$molecule
 0  1
 S           1.82267924       -1.19997629        0.28714109
 C           3.20006180       -0.17260711        0.06528466
 C           2.82980603        1.10216298       -0.25610036
 C           1.41909100        1.26345446       -0.34254814
 C           0.71738150        0.10901545       -0.08456145
 H           0.93627498        2.19419272       -0.61095402
 C          -0.71741859       -0.10899254       -0.08455524
 S          -1.72890273        0.58262129        1.16918923
 C          -1.48510859       -0.82922004       -0.96977108
 C          -3.15985464       -0.09221335        0.46288526
 C          -2.87277666       -0.81959845       -0.65689763
 H          -3.62603435       -1.32447682       -1.24716411
 H           4.19429620       -0.57452886        0.18632814
 H           3.53860725        1.89960515       -0.43610218
 H          -4.12078683        0.09055013        0.91884741
 H          -1.06765130       -1.32983866       -1.83379490
$end


$rem
         jobtype = opt
        exchange = b3lyp
           basis = 6-31++g**
  max_scf_cycles = 200
      mem_static = 100
       mem_total = 1500
   scf_algorithm = rca_diis
       scf_guess = sad
$end


$opt
CONSTRAINT
tors 4 5 7 9 110.0
ENDCONSTRAINT
$end

--------------------------------------------------------------
 Atom   8: ( -1.7651247473,  1.0132539978,  0.6669374411)
         ->( -1.7651248976,  1.0132540796,  0.6669373313)
 Atom  10: ( -3.1828739832,  0.1502826645,  0.1697875238)
         ->( -3.1828739791,  0.1502824673,  0.1697874924)
 Atom  11: ( -2.8680124731, -0.9315676955, -0.6021442083)
         ->( -2.8680123207, -0.9315679269, -0.6021440521)
 Atom   9: ( -1.4684969337, -1.0701797785, -0.8160320027)
         ->( -1.4684968074, -1.0701795844, -0.8160323237)
 Atom   7: ( -0.7197286191, -0.0923875592, -0.2036995291)
         ->( -0.7197285593, -0.0923874756, -0.2036995017)
 Atom  16: ( -1.0279940506, -1.8508629314, -1.4225942650)
         ->( -1.0279938653, -1.8508625056, -1.4225948257)
 Atom  14: (  3.6090568248,  1.6033909198, -1.0147222244)
         ->(  3.6090570669,  1.6033905049, -1.0147225114)
 Atom  15: ( -4.1573917535,  0.4959574265,  0.4788485532)
         ->( -4.1573918327,  0.4959570129,  0.4788485234)
 ----------------------------------------------------------------
             Standard Nuclear Orientation (Angstroms)
    I     Atom           X                Y                Z
 ----------------------------------------------------------------
    1      S       1.7651248976    -1.0132540796     0.6669373313
    2      C       3.1828739791    -0.1502824673     0.1697874924
    3      C       2.8680123207     0.9315679269    -0.6021440521
    4      C       1.4684968074     1.0701795844    -0.8160323237
    5      C       0.7197285593     0.0923874756    -0.2036995017
    6      H       1.0279938653     1.8508625056    -1.4225948257
    7      C      -0.7197285593    -0.0923874756    -0.2036995017
    8      S      -1.7651248976     1.0132540796     0.6669373313
    9      C      -1.4684968074    -1.0701795844    -0.8160323237
   10      C      -3.1828739791     0.1502824673     0.1697874924
   11      C      -2.8680123207    -0.9315679269    -0.6021440521
   12      H      -3.6090570669    -1.6033905049    -1.0147225114
   13      H       4.1573918327    -0.4959570129     0.4788485234
   14      H       3.6090570669     1.6033905049    -1.0147225114
   15      H      -4.1573918327     0.4959570129     0.4788485234
   16      H      -1.0279938653    -1.8508625056    -1.4225948257
 ----------------------------------------------------------------
 Molecular Point Group                 C2    NOp =  2
 Largest Abelian Subgroup              C2    NOp =  2
 Nuclear Repulsion Energy =   629.4837832873 hartrees
 There are       43 alpha and       43 beta electrons
 Requested basis set is 6-31++G(d,p)
 There are 76 shells and 234 basis functions

 Total QAlloc Memory Limit   1500 MB
 Mega-Array Size        98 MB
 MEM_STATIC part       100 MB
 A cutoff of  1.0D-12 yielded   2528 shell pairs
 There are     24898 function pairs
 
 -------------------------------------------------------
 OpenMP Integral Computing Module                       
 Release: version 1.0, May 2013, Q-Chem Inc. Pittsburgh 
 -------------------------------------------------------
 Integral Job Info:
 Integral job number is                      11
 Integral operator is                         1
 short-range coefficients                     0
 long-range coefficients              100000000
 Omega coefficients                           0
 if combine SR and LR in K                    0
 Integral screening is                        0
 Integral computing path is                   2
 max size of driver memory is            800000
 size of driver memory is                593474
 size of scratch memory is             15166112
 max col of scratch BK array               1296
 max len of scratch array in speh3          155
 max len of scratch index in speh4           18
 max int batch size is                      520
 min int batch size is                       52
 fixed nKL is                                52
 max L of basis functions is                  2
 order of int derivative is                   0
 number of shells is                         76
 number of basis is                         234
 number of cartesian basis is               234
 number of contracted shell pairs          2528
 number of primitive shell pairs           8239
 maxK2 (contraction) of shell pair           36
 max number of K2 of shell pair               1
 max number of CS2 of shell pair            266
 max number of PS2 of shell pair           1512
 mem total for path MDJ                   51992
 -------------------------------------------------------
 Smallest overlap matrix eigenvalue = 1.07E-06

 Scale SEOQF with 1.000000e-01/1.000000e-01/1.000000e-01

 Standard Electronic Orientation quadrupole field applied
 Nucleus-field energy     =     0.0000000162 hartrees
 Guess from superposition of atomic densities
 Warning:  Energy on first SCF cycle will be non-variational
 A restricted hybrid HF-DFT SCF calculation will be
 performed using Relaxed Constraint Minimization + Pulay DIIS
 Exchange:     0.2000 Hartree-Fock + 0.0800 Slater + 0.7200 B88
 Correlation:  0.1900 VWN1RPA + 0.8100 LYP
 Using SG-1 standard quadrature grid
 SCF converges when DIIS error is below 1.0E-08
 ---------------------------------------
  Cycle       Energy         DIIS Error
 ---------------------------------------
    1   -1107.2296044955      4.44E-02
    2   -1125.9978796282      1.62E-01
Recomputing EXC -1123.549390 -1126.912323 -1125.997880 
Recomputing EXC -1125.805282 -1126.069767 -1125.997880 
Recomputing EXC -1125.982742 -1126.003529 -1125.997880 
    3   -1125.9827420516      1.62E-01
Recomputing EXC -1123.524979 -1126.893052 -1125.982742 
Recomputing EXC -1125.790487 -1126.053925 -1125.982742 
Recomputing EXC -1125.967825 -1125.988308 -1125.982742 
    4   -1125.9678251900      1.62E-01
Recomputing EXC -1123.502466 -1126.874619 -1125.967825 
Recomputing EXC -1125.775894 -1126.038417 -1125.967825 
Recomputing EXC -1125.953112 -1125.973322 -1125.967825 
    5   -1125.9531122242      1.62E-01
Recomputing EXC -1123.481846 -1126.856999 -1125.953112 
Recomputing EXC -1125.761484 -1126.023225 -1125.953112 
Recomputing EXC -1125.938587 -1125.958553 -1125.953112 
    6   -1125.9385867398      1.62E-01
Recomputing EXC -1123.462859 -1126.840093 -1125.938587 
Recomputing EXC -1125.747241 -1126.008315 -1125.938587 
Recomputing EXC -1125.924235 -1125.943984 -1125.938587 
    7   -1125.9242345772      1.62E-01
Recomputing EXC -1123.445562 -1126.823900 -1125.924235 
Recomputing EXC -1125.733151 -1125.993675 -1125.924235 
Recomputing EXC -1125.910041 -1125.929600 -1125.924235 
    8   -1125.9100414970      1.62E-01
Recomputing EXC -1123.429756 -1126.808343 -1125.910041 
Recomputing EXC -1125.719200 -1125.979280 -1125.910041 
Recomputing EXC -1125.895995 -1125.915385 -1125.910041 
    9   -1125.8959949511      1.62E-01
Recomputing EXC -1123.415426 -1126.793402 -1125.895995 
Recomputing EXC -1125.705377 -1125.965115 -1125.895995 
Recomputing EXC -1125.882083 -1125.901328 -1125.895995 
   10   -1125.8820828414      1.62E-01
Recomputing EXC -1123.402543 -1126.779055 -1125.882083 
Recomputing EXC -1125.691669 -1125.951166 -1125.882083 
Recomputing EXC -1125.868293 -1125.887415 -1125.882083 
   11   -1125.8682934890      1.62E-01
Recomputing EXC -1123.390979 -1126.765250 -1125.868293 
Recomputing EXC -1125.678067 -1125.937415 -1125.868293 
Recomputing EXC -1125.854616 -1125.873633 -1125.868293 
   12   -1125.8546164883      1.62E-01
Recomputing EXC -1123.380643 -1126.751946 -1125.854616 
Recomputing EXC -1125.664563 -1125.923846 -1125.854616 
Recomputing EXC -1125.841042 -1125.859973 -1125.854616 
   13   -1125.8410422994      1.62E-01
Recomputing EXC -1123.371603 -1126.739155 -1125.841042 
Recomputing EXC -1125.651147 -1125.910454 -1125.841042 
Recomputing EXC -1125.827561 -1125.846424 -1125.841042 
   14   -1125.8275611339      1.61E-01
Recomputing EXC -1123.363752 -1126.726832 -1125.827561 
Recomputing EXC -1125.637812 -1125.897223 -1125.827561 
Recomputing EXC -1125.814164 -1125.832978 -1125.827561 
   15   -1125.8141642528      1.61E-01
Recomputing EXC -1123.357061 -1126.714960 -1125.814164 
Recomputing EXC -1125.624551 -1125.884143 -1125.814164 
Recomputing EXC -1125.800843 -1125.819623 -1125.814164 
   16   -1125.8008433249      1.61E-01
Recomputing EXC -1123.351494 -1126.703520 -1125.800843 
Recomputing EXC -1125.611357 -1125.871206 -1125.800843 
Recomputing EXC -1125.787591 -1125.806354 -1125.800843 
   17   -1125.7875905733      1.61E-01
Recomputing EXC -1123.347019 -1126.692492 -1125.787591 
Recomputing EXC -1125.598224 -1125.858401 -1125.787591 
Recomputing EXC -1125.774399 -1125.793160 -1125.787591 
   18   -1125.7743986618      1.61E-01
Recomputing EXC -1123.343564 -1126.681848 -1125.774399 
Recomputing EXC -1125.585149 -1125.845719 -1125.774399 
Recomputing EXC -1125.761261 -1125.780036 -1125.774399 
   19   -1125.7612610350      1.61E-01
Recomputing EXC -1123.341204 -1126.671603 -1125.761261 
Recomputing EXC -1125.572126 -1125.833159 -1125.761261 
Recomputing EXC -1125.748171 -1125.766975 -1125.761261 
   20   -1125.7481709282      1.61E-01
Recomputing EXC -1123.339797 -1126.661705 -1125.748171 
Recomputing EXC -1125.559151 -1125.820705 -1125.748171 
Recomputing EXC -1125.735123 -1125.753970 -1125.748171 
   21   -1125.7351228030      1.61E-01
Recomputing EXC -1123.339389 -1126.652164 -1125.735123 
Recomputing EXC -1125.546222 -1125.808358 -1125.735123 
Recomputing EXC -1125.722111 -1125.741015 -1125.735123 
   22   -1125.7221111073      1.61E-01
Recomputing EXC -1123.339979 -1126.642972 -1125.722111 
Recomputing EXC -1125.533334 -1125.796112 -1125.722111 
Recomputing EXC -1125.709131 -1125.728106 -1125.722111 
   23   -1125.7091305595      1.61E-01
Recomputing EXC -1123.341544 -1126.634117 -1125.709131 
Recomputing EXC -1125.520487 -1125.783962 -1125.709131 
Recomputing EXC -1125.696176 -1125.715237 -1125.709131 
   24   -1125.6961764284      1.61E-01
Recomputing EXC -1123.344000 -1126.625566 -1125.696176 
Recomputing EXC -1125.507679 -1125.771899 -1125.696176 
Recomputing EXC -1125.683245 -1125.702403 -1125.696176 
   25   -1125.6832449942      1.60E-01
Recomputing EXC -1123.347402 -1126.617333 -1125.683245 
Recomputing EXC -1125.494908 -1125.759925 -1125.683245 
Recomputing EXC -1125.670332 -1125.689603 -1125.683245 
   26   -1125.6703323877      1.60E-01
Recomputing EXC -1123.351666 -1126.609386 -1125.670332 
Recomputing EXC -1125.482175 -1125.748032 -1125.670332 
Recomputing EXC -1125.657436 -1125.676830 -1125.670332 
   27   -1125.6574358687      1.60E-01
Recomputing EXC -1123.356859 -1126.601742 -1125.657436 
Recomputing EXC -1125.469480 -1125.736223 -1125.657436 
Recomputing EXC -1125.644553 -1125.664084 -1125.657436 
   28   -1125.6445525546      1.60E-01
Recomputing EXC -1123.362886 -1126.594366 -1125.644553 
Recomputing EXC -1125.456823 -1125.724491 -1125.644553 
Recomputing EXC -1125.631681 -1125.651362 -1125.644553 
   29   -1125.6316808601      1.60E-01
Recomputing EXC -1123.369700 -1126.587241 -1125.631681 
Recomputing EXC -1125.444208 -1125.712833 -1125.631681 
Recomputing EXC -1125.618820 -1125.638662 -1125.631681 
   30   -1125.6188199357      1.60E-01
Recomputing EXC -1123.377472 -1126.580417 -1125.618820 
Recomputing EXC -1125.431637 -1125.701259 -1125.618820 
Recomputing EXC -1125.605968 -1125.625985 -1125.618820 
   31   -1125.6059681620      1.60E-01
Recomputing EXC -1123.385995 -1126.573826 -1125.605968 
Recomputing EXC -1125.419112 -1125.689758 -1125.605968 
Recomputing EXC -1125.593126 -1125.613328 -1125.605968 
   32   -1125.5931262099      1.60E-01
Recomputing EXC -1123.395356 -1126.567492 -1125.593126 
Recomputing EXC -1125.406639 -1125.678337 -1125.593126 
Recomputing EXC -1125.580295 -1125.600693 -1125.593126 
   33   -1125.5802946096      1.59E-01
Recomputing EXC -1123.405466 -1126.561384 -1125.580295 
Recomputing EXC -1125.394222 -1125.666992 -1125.580295 
Recomputing EXC -1125.567475 -1125.588081 -1125.580295 
   34   -1125.5674752665      1.59E-01
Recomputing EXC -1123.416346 -1126.555509 -1125.567475 
Recomputing EXC -1125.381867 -1125.655728 -1125.567475 
Recomputing EXC -1125.554671 -1125.575494 -1125.567475 
   35   -1125.5546707020      1.59E-01
Recomputing EXC -1123.427938 -1126.549846 -1125.554671 
Recomputing EXC -1125.369581 -1125.644545 -1125.554671 
Recomputing EXC -1125.541885 -1125.562935 -1125.554671 
   36   -1125.5418845636      1.59E-01
Recomputing EXC -1123.440317 -1126.544418 -1125.541885 
Recomputing EXC -1125.357373 -1125.633454 -1125.541885 
Recomputing EXC -1125.529121 -1125.550409 -1125.541885 
   37   -1125.5291207926      1.59E-01
Recomputing EXC -1123.453351 -1126.539183 -1125.529121 
Recomputing EXC -1125.345250 -1125.622450 -1125.529121 
Recomputing EXC -1125.516385 -1125.537919 -1125.529121 
   38   -1125.5163852816      1.59E-01
Recomputing EXC -1123.467192 -1126.534190 -1125.516385 
Recomputing EXC -1125.333224 -1125.611552 -1125.516385 
Recomputing EXC -1125.503684 -1125.525473 -1125.516385 
   39   -1125.5036836542      1.58E-01
Recomputing EXC -1123.481704 -1126.529394 -1125.503684 
Recomputing EXC -1125.321306 -1125.600756 -1125.503684 
Recomputing EXC -1125.491024 -1125.513077 -1125.503684 
   40   -1125.4910236851      1.58E-01
Recomputing EXC -1123.496891 -1126.524800 -1125.491024 
Recomputing EXC -1125.309506 -1125.590073 -1125.491024 
Recomputing EXC -1125.478414 -1125.500738 -1125.491024 
   41   -1125.4784141307      1.58E-01
Recomputing EXC -1123.512686 -1126.520387 -1125.478414 
Recomputing EXC -1125.297838 -1125.579507 -1125.478414 
Recomputing EXC -1125.465865 -1125.488466 -1125.478414 
   42   -1125.4658653182      1.58E-01
Recomputing EXC -1123.529155 -1126.516178 -1125.465865 
Recomputing EXC -1125.286317 -1125.569074 -1125.465865 
Recomputing EXC -1125.453388 -1125.476271 -1125.465865 
   43   -1125.4533884504      1.58E-01
Recomputing EXC -1123.546332 -1126.512190 -1125.453388 
Recomputing EXC -1125.274962 -1125.558789 -1125.453388 
Recomputing EXC -1125.440996 -1125.464167 -1125.453388 
   44   -1125.4409957298      1.57E-01
Recomputing EXC -1123.564074 -1126.508378 -1125.440996 
Recomputing EXC -1125.263786 -1125.548653 -1125.440996 
Recomputing EXC -1125.428702 -1125.452165 -1125.440996 
   45   -1125.4287017344      1.57E-01
Recomputing EXC -1123.582468 -1126.504776 -1125.428702 
Recomputing EXC -1125.252810 -1125.538689 -1125.428702 
Recomputing EXC -1125.416522 -1125.440281 -1125.428702 
   46   -1125.4165219576      1.57E-01
Recomputing EXC -1123.601487 -1126.501380 -1125.416522 
Recomputing EXC -1125.242055 -1125.528910 -1125.416522 
Recomputing EXC -1125.404474 -1125.428532 -1125.416522 
   47   -1125.4044735603      1.57E-01
Recomputing EXC -1123.621038 -1126.498167 -1125.404474 
Recomputing EXC -1125.231537 -1125.519326 -1125.404474 
Recomputing EXC -1125.392576 -1125.416932 -1125.404474 
   48   -1125.3925757981      1.56E-01
Recomputing EXC -1123.641109 -1126.495141 -1125.392576 
Recomputing EXC -1125.221281 -1125.509954 -1125.392576 
Recomputing EXC -1125.380850 -1125.405503 -1125.392576 
   49   -1125.3808495781      1.56E-01
Recomputing EXC -1123.661781 -1126.492337 -1125.380850 
Recomputing EXC -1125.211314 -1125.500822 -1125.380850 
Recomputing EXC -1125.369317 -1125.394266 -1125.380850 
   50   -1125.3693170841      1.56E-01 Done RCA. Switching to DIIS
   51   -1098.4412866611      2.99E-02
   52   -1088.6464459218      3.92E-02
   53   -1101.1743496787      2.10E-02
   54   -1104.4051566401      7.34E-03
   55   -1104.2710913865      8.46E-03
   56   -1104.8293195188      1.08E-03
   57   -1104.8339466156      7.22E-04
   58   -1104.8375933610      1.66E-04
   59   -1104.8377892845      3.37E-05
   60   -1104.8377971354      1.24E-05
   61   -1104.8377984402      5.69E-06
   62   -1104.8377988374      8.51E-07
   63   -1104.8377988801      1.58E-07
   64   -1104.8377989213      4.02E-08
   65   -1104.8377989196      1.25E-08
   66   -1104.8377989398      2.94E-09 Convergence criterion met
 ---------------------------------------
 SCF time:  CPU 53.54 s  wall 47.92 s
 SCF   energy in the final basis set = -1104.8377989398
 Total energy in the final basis set = -1104.8377989398
 
 --------------------------------------------------------------
             Orbital Energies (a.u.) and Symmetries
 --------------------------------------------------------------
 
 Alpha MOs, Restricted
 -- Occupied --                  
-88.919 -88.919 -10.235 -10.234 -10.223 -10.223 -10.203 -10.203
  1 B     1 A     2 A     2 B     3 B     3 A     4 A     4 B                  
-10.202 -10.202  -7.978  -7.978  -5.942  -5.942  -5.938  -5.938
  5 B     5 A     6 B     6 A     7 B     7 A     8 B     8 A                  
 -5.935  -5.935  -0.900  -0.878  -0.771  -0.744  -0.740  -0.706
  9 B     9 A    10 A    10 B    11 A    11 B    12 A    12 B                  
 -0.603  -0.571  -0.561  -0.535  -0.524  -0.478  -0.418  -0.417
 13 A    13 B    14 A    14 B    15 A    15 B    16 A    16 B                  
 -0.412  -0.406  -0.395  -0.375  -0.374  -0.352  -0.348  -0.264
 17 A    17 B    18 A    19 A    18 B    19 B    20 A    21 A                  
 -0.258  -0.255  -0.231
 20 B    22 A    21 B                                                          
 -- Virtual --                   
 -0.041  -0.024  -0.005  -0.003   0.007   0.012   0.019   0.022
 23 A    22 B    24 A    23 B    25 A    24 B    25 B    26 A                  
  0.027   0.036   0.037   0.040   0.044   0.053   0.064   0.065
 27 A    28 A    26 B    27 B    29 A    28 B    29 B    30 A                  
  0.070   0.074   0.085   0.100   0.103   0.106   0.108   0.110
 30 B    31 A    32 A    31 B    33 A    34 A    35 A    32 B                  
  0.117   0.121   0.124   0.131   0.132   0.133   0.136   0.143
 33 B    34 B    35 B    36 A    36 B    37 A    38 A    37 B                  
  0.148   0.151   0.154   0.161   0.168   0.176   0.179   0.179
 38 B    39 A    40 A    39 B    41 A    40 B    42 A    41 B                  
  0.187   0.189   0.195   0.209   0.213   0.222   0.224   0.228
 43 A    42 B    43 B    44 A    44 B    45 A    45 B    46 A                  
  0.237   0.246   0.261   0.266   0.276   0.280   0.289   0.294
 47 A    46 B    47 B    48 A    49 A    48 B    50 A    49 B                  
  0.312   0.316   0.327   0.337   0.359   0.360   0.375   0.391
 50 B    51 B    51 A    52 A    52 B    53 A    53 B    54 A                  
  0.434   0.469   0.470   0.506   0.514   0.533   0.535   0.578
 54 B    55 A    55 B    56 A    57 A    56 B    57 B    58 B                  
  0.581   0.593   0.621   0.628   0.644   0.664   0.674   0.684
 58 A    59 A    59 B    60 A    60 B    61 B    61 A    62 A                  
  0.697   0.711   0.724   0.726   0.740   0.752   0.766   0.779
 63 A    62 B    63 B    64 A    64 B    65 B    65 A    66 B                  
  0.791   0.804   0.808   0.827   0.840   0.885   0.915   0.939
 66 A    67 B    67 A    68 A    68 B    69 A    69 B    70 B                  
  0.940   0.952   0.958   0.969   0.974   0.986   0.993   1.014
 70 A    71 B    71 A    72 B    72 A    73 A    73 B    74 B                  
  1.017   1.026   1.030   1.075   1.088   1.091   1.109   1.113
 75 B    74 A    75 A    76 A    76 B    77 A    78 A    77 B                  
  1.137   1.182   1.211   1.218   1.265   1.268   1.321   1.346
 78 B    79 A    80 A    79 B    80 B    81 A    81 B    82 A                  
  1.351   1.353   1.366   1.391   1.464   1.471   1.485   1.528
 83 A    82 B    83 B    84 A    84 B    85 A    85 B    86 A                  
  1.561   1.692   1.696   1.771   1.809   1.862   1.878   1.888
 86 B    87 A    87 B    88 A    89 A    88 B    90 A    89 B                  
  1.920   1.928   1.973   1.997   2.007   2.026   2.068   2.112
 90 B    91 A    92 A    91 B    93 A    92 B    93 B    94 A                  
  2.128   2.144   2.183   2.195   2.211   2.269   2.271   2.347
 95 A    94 B    95 B    96 A    96 B    97 A    97 B    98 A                  
  2.368   2.370   2.428   2.439   2.470   2.477   2.499   2.508
 99 A    98 B    99 B   100 A   101 A   100 B   101 B   102 A                  
  2.520   2.528   2.586   2.593   2.606   2.655   2.705   2.710
102 B   103 A   103 B   104 A   104 B   105 A   106 A   105 B                  
  2.756   2.852   2.860   2.896   2.941   3.167   3.189   3.275
106 B   107 A   107 B   108 A   108 B   109 B   109 A   110 B                  
  3.278   3.409   3.432   3.730   3.749   3.972   3.973   4.280
110 A   111 A   111 B   112 A   112 B   113 A   113 B   114 A                  
  4.305   4.320   4.333   4.435   4.538   4.662   4.716
115 A   114 B   115 B   116 A   116 B   117 A   117 B                          
 
 Beta MOs, Restricted
 -- Occupied --                  
-88.919 -88.919 -10.235 -10.234 -10.223 -10.223 -10.203 -10.203
  1 B     1 A     2 A     2 B     3 B     3 A     4 A     4 B                  
-10.202 -10.202  -7.978  -7.978  -5.942  -5.942  -5.938  -5.938
  5 B     5 A     6 B     6 A     7 B     7 A     8 B     8 A                  
 -5.935  -5.935  -0.900  -0.878  -0.771  -0.744  -0.740  -0.706
  9 B     9 A    10 A    10 B    11 A    11 B    12 A    12 B                  
 -0.603  -0.571  -0.561  -0.535  -0.524  -0.478  -0.418  -0.417
 13 A    13 B    14 A    14 B    15 A    15 B    16 A    16 B                  
 -0.412  -0.406  -0.395  -0.375  -0.374  -0.352  -0.348  -0.264
 17 A    17 B    18 A    19 A    18 B    19 B    20 A    21 A                  
 -0.258  -0.255  -0.231
 20 B    22 A    21 B                                                          
 -- Virtual --                   
 -0.041  -0.024  -0.005  -0.003   0.007   0.012   0.019   0.022
 23 A    22 B    24 A    23 B    25 A    24 B    25 B    26 A                  
  0.027   0.036   0.037   0.040   0.044   0.053   0.064   0.065
 27 A    28 A    26 B    27 B    29 A    28 B    29 B    30 A                  
  0.070   0.074   0.085   0.100   0.103   0.106   0.108   0.110
 30 B    31 A    32 A    31 B    33 A    34 A    35 A    32 B                  
  0.117   0.121   0.124   0.131   0.132   0.133   0.136   0.143
 33 B    34 B    35 B    36 A    36 B    37 A    38 A    37 B                  
  0.148   0.151   0.154   0.161   0.168   0.176   0.179   0.179
 38 B    39 A    40 A    39 B    41 A    40 B    42 A    41 B                  
  0.187   0.189   0.195   0.209   0.213   0.222   0.224   0.228
 43 A    42 B    43 B    44 A    44 B    45 A    45 B    46 A                  
  0.237   0.246   0.261   0.266   0.276   0.280   0.289   0.294
 47 A    46 B    47 B    48 A    49 A    48 B    50 A    49 B                  
  0.312   0.316   0.327   0.337   0.359   0.360   0.375   0.391
 50 B    51 B    51 A    52 A    52 B    53 A    53 B    54 A                  
  0.434   0.469   0.470   0.506   0.514   0.533   0.535   0.578
 54 B    55 A    55 B    56 A    57 A    56 B    57 B    58 B                  
  0.581   0.593   0.621   0.628   0.644   0.664   0.674   0.684
 58 A    59 A    59 B    60 A    60 B    61 B    61 A    62 A                  
  0.697   0.711   0.724   0.726   0.740   0.752   0.766   0.779
 63 A    62 B    63 B    64 A    64 B    65 B    65 A    66 B                  
  0.791   0.804   0.808   0.827   0.840   0.885   0.915   0.939
 66 A    67 B    67 A    68 A    68 B    69 A    69 B    70 B                  
  0.940   0.952   0.958   0.969   0.974   0.986   0.993   1.014
 70 A    71 B    71 A    72 B    72 A    73 A    73 B    74 B                  
  1.017   1.026   1.030   1.075   1.088   1.091   1.109   1.113
 75 B    74 A    75 A    76 A    76 B    77 A    78 A    77 B                  
  1.137   1.182   1.211   1.218   1.265   1.268   1.321   1.346
 78 B    79 A    80 A    79 B    80 B    81 A    81 B    82 A                  
  1.351   1.353   1.366   1.391   1.464   1.471   1.485   1.528
 83 A    82 B    83 B    84 A    84 B    85 A    85 B    86 A                  
  1.561   1.692   1.696   1.771   1.809   1.862   1.878   1.888
 86 B    87 A    87 B    88 A    89 A    88 B    90 A    89 B                  
  1.920   1.928   1.973   1.997   2.007   2.026   2.068   2.112
 90 B    91 A    92 A    91 B    93 A    92 B    93 B    94 A                  
  2.128   2.144   2.183   2.195   2.211   2.269   2.271   2.347
 95 A    94 B    95 B    96 A    96 B    97 A    97 B    98 A                  
  2.368   2.370   2.428   2.439   2.470   2.477   2.499   2.508
 99 A    98 B    99 B   100 A   101 A   100 B   101 B   102 A                  
  2.520   2.528   2.586   2.593   2.606   2.655   2.705   2.710
102 B   103 A   103 B   104 A   104 B   105 A   106 A   105 B                  
  2.756   2.852   2.860   2.896   2.941   3.167   3.189   3.275
106 B   107 A   107 B   108 A   108 B   109 B   109 A   110 B                  
  3.278   3.409   3.432   3.730   3.749   3.972   3.973   4.280
110 A   111 A   111 B   112 A   112 B   113 A   113 B   114 A                  
  4.305   4.320   4.333   4.435   4.538   4.662   4.716
115 A   114 B   115 B   116 A   116 B   117 A   117 B                          
 --------------------------------------------------------------
 
          Ground-State Mulliken Net Atomic Charges

     Atom                 Charge (a.u.)
  ----------------------------------------
      1 S                     0.063164
      2 C                    -0.053386
      3 C                    -0.371668
      4 C                     0.263711
      5 C                    -0.340172
      6 H                     0.133566
      7 C                    -0.340172
      8 S                     0.063164
      9 C                     0.263711
     10 C                    -0.053386
     11 C                    -0.371668
     12 H                     0.118143
     13 H                     0.186641
     14 H                     0.118143
     15 H                     0.186641
     16 H                     0.133566
  ----------------------------------------
  Sum of atomic charges =    -0.000000

 -----------------------------------------------------------------
                    Cartesian Multipole Moments
 -----------------------------------------------------------------
    Charge (ESU x 10^10)
                -0.0000
    Dipole Moment (Debye)
         X       0.0000      Y      -0.0000      Z      -0.6346
       Tot       0.6346
    Quadrupole Moments (Debye-Ang)
        XX     -61.2024     XY       1.4743     YY     -71.5637
        XZ       0.0000     YZ      -0.0000     ZZ     -74.8634
    Octopole Moments (Debye-Ang^2)
       XXX       0.0000    XXY      -0.0000    XYY       0.0000
       YYY       0.0000    XXZ       5.6996    XYZ     -12.8702
       YYZ      -6.0543    XZZ       0.0000    YZZ       0.0000
       ZZZ       2.4993
    Hexadecapole Moments (Debye-Ang^3)
      XXXX   -1879.5439   XXXY     -12.6107   XXYY    -416.4745
      XYYY       4.7625   YYYY    -434.6593   XXXZ       0.0000
      XXYZ       0.0000   XYYZ      -0.0000   YYYZ       0.0000
      XXZZ    -418.5688   XYZZ       2.4408   YYZZ    -105.5586
      XZZZ       0.0000   YZZZ      -0.0000   ZZZZ    -272.1401
 -----------------------------------------------------------------
 Calculating analytic gradient of the SCF energy
 Gradient of SCF Energy
            1           2           3           4           5           6
    1  -0.0009039   0.0006873  -0.0017084   0.0013562  -0.0073134   0.0013530
    2   0.0012101   0.0036137  -0.0022726  -0.0009157   0.0002042  -0.0010106
    3   0.0004869  -0.0031496   0.0018091   0.0001833   0.0001543   0.0001584
            7           8           9          10          11          12
    1   0.0073134   0.0009039  -0.0013562  -0.0006873   0.0017084   0.0010751
    2  -0.0002042  -0.0012101   0.0009157  -0.0036137   0.0022726   0.0009690
    3   0.0001543   0.0004869   0.0001833  -0.0031496   0.0018091   0.0006783
           13          14          15          16
    1  -0.0018715  -0.0010751   0.0018715  -0.0013530
    2   0.0001036  -0.0009690  -0.0001036   0.0010106
    3  -0.0003207   0.0006783  -0.0003207   0.0001584
 Max gradient component =       7.313E-03
 RMS gradient           =       2.068E-03
 Gradient time:  CPU 2.06 s  wall 2.01 s
 Geometry Optimization Parameters
   NAtoms,    NIC,     NZ,  NCons,   NDum,   NFix, NCnnct, MaxDiis
       16     111       0       1       0       0       0       0


** CONSTRAINED OPTIMIZATION IN DELOCALIZED INTERNAL COORDINATES **
   Searching for a Minimum

   Optimization Cycle:   1

                       Coordinates (Angstroms)
     ATOM                X               Y               Z
      1  S         1.7651248976   -1.0132540796    0.6669373313
      2  C         3.1828739791   -0.1502824673    0.1697874924
      3  C         2.8680123207    0.9315679269   -0.6021440521
      4  C         1.4684968074    1.0701795844   -0.8160323237
      5  C         0.7197285593    0.0923874756   -0.2036995017
      6  H         1.0279938653    1.8508625056   -1.4225948257
      7  C        -0.7197285593   -0.0923874756   -0.2036995017
      8  S        -1.7651248976    1.0132540796    0.6669373313
      9  C        -1.4684968074   -1.0701795844   -0.8160323237
     10  C        -3.1828739791    0.1502824673    0.1697874924
     11  C        -2.8680123207   -0.9315679269   -0.6021440521
     12  H        -3.6090570669   -1.6033905049   -1.0147225114
     13  H         4.1573918327   -0.4959570129    0.4788485234
     14  H         3.6090570669    1.6033905049   -1.0147225114
     15  H        -4.1573918327    0.4959570129    0.4788485234
     16  H        -1.0279938653   -1.8508625056   -1.4225948257
   Point Group: c2    Number of degrees of freedom:    22


   Energy is  -1104.837798940

              Constraints and their Current Values
                                        Value     Constraint
   Dihedral:        4   5   7   9      110.000      110.000

 Attempting to Generate Delocalized Internal Coordinates

 21 Hessian modes will be used to form the next step
  Hessian Eigenvalues:
     0.045000    0.045000    0.045000    0.045002    0.045004    0.045013
     0.159937    0.159990    0.160000    0.221280    0.237833    0.249997
     0.296078    0.314672    0.357149    0.357543    0.360899    0.380793
     0.408411    0.470750    0.505998

 Minimum Search - Taking Simple RFO Step
 Searching for Lamda that Minimizes Along All modes
 Value Taken    Lamda =  -0.00057023
 Step Taken.  Stepsize is  0.055679

                             Maximum     Tolerance    Cnvgd?
         Gradient           0.007806      0.000300      NO
         Displacement       0.028929      0.001200      NO
         Energy change     *********      0.000001      NO


 New Cartesian Coordinates Obtained by Inverse Iteration

 Displacement from previous Coordinates is:  0.102941
 ----------------------------------------------------------------
             Standard Nuclear Orientation (Angstroms)
    I     Atom           X                Y                Z
 ----------------------------------------------------------------
    1      S       1.7783765530    -1.0219050866     0.6582701439
    2      C       3.1957136465    -0.1541313507     0.1669984071
    3      C       2.8781151764     0.9337637265    -0.6040681018
    4      C       1.4731544644     1.0730728498    -0.8118973396
    5      C       0.7262251637     0.0930047996    -0.1976420770
    6      H       1.0234299236     1.8578672731    -1.4099494852
    7      C      -0.7262251637    -0.0930047996    -0.1976420770
    8      S      -1.7783765530     1.0219050866     0.6582701439
    9      C      -1.4731544644    -1.0730728498    -0.8118973396
   10      C      -3.1957136465     0.1541313507     0.1669984071
   11      C      -2.8781151764    -0.9337637265    -0.6040681018
   12      H      -3.6190580440    -1.6092790270    -1.0170015469
   13      H       4.1747754621    -0.4991602652     0.4716701320
   14      H       3.6190580440     1.6092790270    -1.0170015469
   15      H      -4.1747754621     0.4991602652     0.4716701320
   16      H      -1.0234299236    -1.8578672731    -1.4099494852
 ----------------------------------------------------------------
 Molecular Point Group                 C2    NOp =  2
 Largest Abelian Subgroup              C2    NOp =  2
 Nuclear Repulsion Energy =   627.6352245260 hartrees
 There are       43 alpha and       43 beta electrons
 Applying Cartesian multipole field
    Component          Value
    ---------          -----
     (2,0,0)        1.00000E-11
     (0,2,0)        2.00000E-11
     (0,0,2)       -3.00000E-11
 Nucleus-field energy     =     0.0000000164 hartrees
 Requested basis set is 6-31++G(d,p)
 There are 76 shells and 234 basis functions
 A cutoff of  1.0D-12 yielded   2528 shell pairs
 There are     24898 function pairs
 Smallest overlap matrix eigenvalue = 1.15E-06
 Guess MOs from SCF MO coefficient file
 Reading MOs from coefficient file
 Reading MOs from coefficient file
 A restricted hybrid HF-DFT SCF calculation will be
 performed using Relaxed Constraint Minimization + Pulay DIIS
 Exchange:     0.2000 Hartree-Fock + 0.0800 Slater + 0.7200 B88
 Correlation:  0.1900 VWN1RPA + 0.8100 LYP
 Using SG-1 standard quadrature grid
 SCF converges when DIIS error is below 1.0E-08
 Geometry optimization detected.  Setting ReadMinima to 0
 Setting SaveMinima to 0
 Inaccurate integrated density:
   Number of electrons =    86
   Numerical integral  =    85.977810947421
   Relative error      =    -0.0258012239 %
 Inaccurate integrated density:
   Number of electrons =    86
   Numerical integral  =    85.977810947421
   Relative error      =    -0.0258012239 %
 ---------------------------------------
  Cycle       Energy         DIIS Error
 ---------------------------------------
    1   -1104.8182399583      5.99E-04 Done RCA. Switching to DIIS
    2   -1104.8379949791      1.07E-04
    3   -1104.8376575360      2.34E-04
    4   -1104.8380916622      2.69E-05
    5   -1104.8380958550      1.14E-05
    6   -1104.8380967836      2.74E-06
    7   -1104.8380968356      1.08E-06
    8   -1104.8380968436      2.50E-07
    9   -1104.8380968440      5.91E-08
   10   -1104.8380968441      2.42E-08
   11   -1104.8380968440      4.23E-09 Convergence criterion met
 ---------------------------------------
 SCF time:  CPU 6.20 s  wall 5.51 s
 SCF   energy in the final basis set = -1104.8380968440
 Total energy in the final basis set = -1104.8380968440
 
 --------------------------------------------------------------
             Orbital Energies (a.u.) and Symmetries
 --------------------------------------------------------------
 
 Alpha MOs, Restricted
 -- Occupied --                  
-88.919 -88.919 -10.236 -10.236 -10.225 -10.225 -10.204 -10.204
  1 B     1 A     2 A     2 B     3 B     3 A     4 A     4 B                  
-10.203 -10.203  -7.978  -7.978  -5.942  -5.942  -5.939  -5.939
  5 B     5 A     6 B     6 A     7 B     7 A     8 B     8 A                  
 -5.936  -5.936  -0.898  -0.877  -0.769  -0.744  -0.739  -0.705
  9 B     9 A    10 A    10 B    11 A    11 B    12 A    12 B                  
 -0.601  -0.571  -0.560  -0.534  -0.523  -0.478  -0.417  -0.416
 13 A    13 B    14 A    14 B    15 A    15 B    16 A    16 B                  
 -0.411  -0.406  -0.394  -0.376  -0.374  -0.352  -0.348  -0.264
 17 A    17 B    18 A    19 A    18 B    19 B    20 A    21 A                  
 -0.258  -0.256  -0.231
 20 B    22 A    21 B                                                          
 -- Virtual --                   
 -0.042  -0.024  -0.005  -0.003   0.007   0.011   0.019   0.022
 23 A    22 B    24 A    23 B    25 A    24 B    25 B    26 A                  
  0.027   0.035   0.037   0.039   0.044   0.053   0.064   0.064
 27 A    28 A    26 B    27 B    29 A    28 B    29 B    30 A                  
  0.070   0.074   0.085   0.099   0.103   0.106   0.108   0.109
 30 B    31 A    32 A    31 B    33 A    34 A    35 A    32 B                  
  0.117   0.121   0.124   0.130   0.132   0.133   0.135   0.143
 33 B    34 B    35 B    36 A    36 B    37 A    38 A    37 B                  
  0.146   0.150   0.153   0.161   0.168   0.175   0.178   0.178
 38 B    39 A    40 A    39 B    41 A    40 B    42 A    41 B                  
  0.187   0.189   0.195   0.208   0.212   0.221   0.223   0.228
 43 A    42 B    43 B    44 A    44 B    45 A    45 B    46 A                  
  0.236   0.245   0.261   0.267   0.275   0.279   0.288   0.292
 47 A    46 B    47 B    48 A    49 A    48 B    50 A    49 B                  
  0.310   0.315   0.325   0.335   0.358   0.360   0.374   0.390
 50 B    51 B    51 A    52 A    52 B    53 A    53 B    54 A                  
  0.433   0.467   0.469   0.505   0.515   0.530   0.533   0.577
 54 B    55 B    55 A    56 A    57 A    56 B    57 B    58 B                  
  0.580   0.593   0.620   0.626   0.645   0.663   0.673   0.683
 58 A    59 A    59 B    60 A    60 B    61 B    61 A    62 A                  
  0.697   0.710   0.723   0.726   0.737   0.750   0.764   0.779
 63 A    62 B    63 B    64 A    64 B    65 B    65 A    66 B                  
  0.790   0.802   0.806   0.826   0.840   0.883   0.914   0.940
 66 A    67 B    67 A    68 A    68 B    69 A    69 B    70 A                  
  0.941   0.951   0.959   0.966   0.972   0.985   0.994   1.014
 70 B    71 B    71 A    72 B    72 A    73 A    73 B    74 B                  
  1.017   1.025   1.028   1.075   1.086   1.091   1.108   1.111
 75 B    74 A    75 A    76 A    76 B    77 A    78 A    77 B                  
  1.135   1.181   1.208   1.216   1.261   1.267   1.320   1.347
 78 B    79 A    80 A    79 B    80 B    81 A    81 B    82 A                  
  1.351   1.352   1.365   1.389   1.461   1.468   1.481   1.527
 83 A    82 B    83 B    84 A    84 B    85 A    85 B    86 A                  
  1.556   1.691   1.695   1.767   1.803   1.863   1.873   1.883
 86 B    87 A    87 B    88 A    89 A    88 B    90 A    89 B                  
  1.916   1.922   1.966   1.993   2.003   2.024   2.065   2.109
 90 B    91 A    92 A    91 B    93 A    92 B    93 B    94 A                  
  2.127   2.141   2.180   2.191   2.208   2.262   2.264   2.339
 95 A    94 B    95 B    96 A    96 B    97 B    97 A    98 A                  
  2.366   2.369   2.425   2.434   2.467   2.472   2.494   2.506
 99 A    98 B    99 B   100 A   101 A   100 B   101 B   102 A                  
  2.518   2.523   2.580   2.587   2.601   2.649   2.698   2.703
102 B   103 A   103 B   104 A   104 B   105 A   106 A   105 B                  
  2.749   2.844   2.853   2.886   2.932   3.159   3.179   3.268
106 B   107 A   107 B   108 A   108 B   109 B   109 A   110 B                  
  3.271   3.402   3.424   3.721   3.740   3.970   3.972   4.276
110 A   111 A   111 B   112 A   112 B   113 A   113 B   114 A                  
  4.302   4.320   4.329   4.432   4.535   4.658   4.710
115 A   114 B   115 B   116 A   116 B   117 A   117 B                          
 
 Beta MOs, Restricted
 -- Occupied --                  
-88.919 -88.919 -10.236 -10.236 -10.225 -10.225 -10.204 -10.204
  1 B     1 A     2 A     2 B     3 B     3 A     4 A     4 B                  
-10.203 -10.203  -7.978  -7.978  -5.942  -5.942  -5.939  -5.939
  5 B     5 A     6 B     6 A     7 B     7 A     8 B     8 A                  
 -5.936  -5.936  -0.898  -0.877  -0.769  -0.744  -0.739  -0.705
  9 B     9 A    10 A    10 B    11 A    11 B    12 A    12 B                  
 -0.601  -0.571  -0.560  -0.534  -0.523  -0.478  -0.417  -0.416
 13 A    13 B    14 A    14 B    15 A    15 B    16 A    16 B                  
 -0.411  -0.406  -0.394  -0.376  -0.374  -0.352  -0.348  -0.264
 17 A    17 B    18 A    19 A    18 B    19 B    20 A    21 A                  
 -0.258  -0.256  -0.231
 20 B    22 A    21 B                                                          
 -- Virtual --                   
 -0.042  -0.024  -0.005  -0.003   0.007   0.011   0.019   0.022
 23 A    22 B    24 A    23 B    25 A    24 B    25 B    26 A                  
  0.027   0.035   0.037   0.039   0.044   0.053   0.064   0.064
 27 A    28 A    26 B    27 B    29 A    28 B    29 B    30 A                  
  0.070   0.074   0.085   0.099   0.103   0.106   0.108   0.109
 30 B    31 A    32 A    31 B    33 A    34 A    35 A    32 B                  
  0.117   0.121   0.124   0.130   0.132   0.133   0.135   0.143
 33 B    34 B    35 B    36 A    36 B    37 A    38 A    37 B                  
  0.146   0.150   0.153   0.161   0.168   0.175   0.178   0.178
 38 B    39 A    40 A    39 B    41 A    40 B    42 A    41 B                  
  0.187   0.189   0.195   0.208   0.212   0.221   0.223   0.228
 43 A    42 B    43 B    44 A    44 B    45 A    45 B    46 A                  
  0.236   0.245   0.261   0.267   0.275   0.279   0.288   0.292
 47 A    46 B    47 B    48 A    49 A    48 B    50 A    49 B                  
  0.310   0.315   0.325   0.335   0.358   0.360   0.374   0.390
 50 B    51 B    51 A    52 A    52 B    53 A    53 B    54 A                  
  0.433   0.467   0.469   0.505   0.515   0.530   0.533   0.577
 54 B    55 B    55 A    56 A    57 A    56 B    57 B    58 B                  
  0.580   0.593   0.620   0.626   0.645   0.663   0.673   0.683
 58 A    59 A    59 B    60 A    60 B    61 B    61 A    62 A                  
  0.697   0.710   0.723   0.726   0.737   0.750   0.764   0.779
 63 A    62 B    63 B    64 A    64 B    65 B    65 A    66 B                  
  0.790   0.802   0.806   0.826   0.840   0.883   0.914   0.940
 66 A    67 B    67 A    68 A    68 B    69 A    69 B    70 A                  
  0.941   0.951   0.959   0.966   0.972   0.985   0.994   1.014
 70 B    71 B    71 A    72 B    72 A    73 A    73 B    74 B                  
  1.017   1.025   1.028   1.075   1.086   1.091   1.108   1.111
 75 B    74 A    75 A    76 A    76 B    77 A    78 A    77 B                  
  1.135   1.181   1.208   1.216   1.261   1.267   1.320   1.347
 78 B    79 A    80 A    79 B    80 B    81 A    81 B    82 A                  
  1.351   1.352   1.365   1.389   1.461   1.468   1.481   1.527
 83 A    82 B    83 B    84 A    84 B    85 A    85 B    86 A                  
  1.556   1.691   1.695   1.767   1.803   1.863   1.873   1.883
 86 B    87 A    87 B    88 A    89 A    88 B    90 A    89 B                  
  1.916   1.922   1.966   1.993   2.003   2.024   2.065   2.109
 90 B    91 A    92 A    91 B    93 A    92 B    93 B    94 A                  
  2.127   2.141   2.180   2.191   2.208   2.262   2.264   2.339
 95 A    94 B    95 B    96 A    96 B    97 B    97 A    98 A                  
  2.366   2.369   2.425   2.434   2.467   2.472   2.494   2.506
 99 A    98 B    99 B   100 A   101 A   100 B   101 B   102 A                  
  2.518   2.523   2.580   2.587   2.601   2.649   2.698   2.703
102 B   103 A   103 B   104 A   104 B   105 A   106 A   105 B                  
  2.749   2.844   2.853   2.886   2.932   3.159   3.179   3.268
106 B   107 A   107 B   108 A   108 B   109 B   109 A   110 B                  
  3.271   3.402   3.424   3.721   3.740   3.970   3.972   4.276
110 A   111 A   111 B   112 A   112 B   113 A   113 B   114 A                  
  4.302   4.320   4.329   4.432   4.535   4.658   4.710
115 A   114 B   115 B   116 A   116 B   117 A   117 B                          
 --------------------------------------------------------------
 
          Ground-State Mulliken Net Atomic Charges

     Atom                 Charge (a.u.)
  ----------------------------------------
      1 S                     0.061404
      2 C                    -0.052930
      3 C                    -0.368921
      4 C                     0.252609
      5 C                    -0.332929
      6 H                     0.134423
      7 C                    -0.332929
      8 S                     0.061404
      9 C                     0.252609
     10 C                    -0.052930
     11 C                    -0.368921
     12 H                     0.118651
     13 H                     0.187693
     14 H                     0.118651
     15 H                     0.187693
     16 H                     0.134423
  ----------------------------------------
  Sum of atomic charges =    -0.000000

 -----------------------------------------------------------------
                    Cartesian Multipole Moments
 -----------------------------------------------------------------
    Charge (ESU x 10^10)
                -0.0000
    Dipole Moment (Debye)
         X      -0.0000      Y       0.0000      Z      -0.6348
       Tot       0.6348
    Quadrupole Moments (Debye-Ang)
        XX     -61.1105     XY       1.4389     YY     -71.5517
        XZ      -0.0000     YZ       0.0000     ZZ     -75.0238
    Octopole Moments (Debye-Ang^2)
       XXX       0.0000    XXY      -0.0000    XYY       0.0000
       YYY       0.0000    XXZ       5.8240    XYZ     -12.9225
       YYZ      -5.9219    XZZ      -0.0000    YZZ       0.0000
       ZZZ       3.1295
    Hexadecapole Moments (Debye-Ang^3)
      XXXX   -1893.9150   XXXY     -11.4965   XXYY    -420.2048
      XYYY       6.4005   YYYY    -438.3709   XXXZ      -0.0000
      XXYZ       0.0000   XYYZ      -0.0000   YYYZ       0.0000
      XXZZ    -422.4472   XYZZ       3.0916   YYZZ    -106.0216
      XZZZ      -0.0000   YZZZ       0.0000   ZZZZ    -270.1467
 -----------------------------------------------------------------
 Calculating analytic gradient of the SCF energy
 Gradient of SCF Energy
            1           2           3           4           5           6
    1   0.0001270   0.0009391  -0.0001921   0.0002201  -0.0015158   0.0001474
    2   0.0001426   0.0003260  -0.0001890  -0.0004604   0.0010405  -0.0001159
    3   0.0002919  -0.0000298   0.0000804  -0.0008110   0.0007714  -0.0004031
            7           8           9          10          11          12
    1   0.0015158  -0.0001270  -0.0002201  -0.0009391   0.0001921  -0.0001041
    2  -0.0010405  -0.0001426   0.0004604  -0.0003260   0.0001890  -0.0001005
    3   0.0007714   0.0002919  -0.0008110  -0.0000298   0.0000804  -0.0000452
           13          14          15          16
    1   0.0000088   0.0001041  -0.0000088  -0.0001474
    2  -0.0002152   0.0001005   0.0002152   0.0001159
    3   0.0001454  -0.0000452   0.0001454  -0.0004031
 Max gradient component =       1.516E-03
 RMS gradient           =       5.153E-04
 Gradient time:  CPU 2.00 s  wall 1.98 s
 Geometry Optimization Parameters
   NAtoms,    NIC,     NZ,  NCons,   NDum,   NFix, NCnnct, MaxDiis
       16     111       0       1       0       0       0       0

 Cartesian Hessian Update
 Hessian Updated using BFGS Update


** CONSTRAINED OPTIMIZATION IN DELOCALIZED INTERNAL COORDINATES **
   Searching for a Minimum

   Optimization Cycle:   2

                       Coordinates (Angstroms)
     ATOM                X               Y               Z
      1  S         1.7783765530   -1.0219050866    0.6582701439
      2  C         3.1957136465   -0.1541313507    0.1669984071
      3  C         2.8781151764    0.9337637265   -0.6040681018
      4  C         1.4731544644    1.0730728498   -0.8118973396
      5  C         0.7262251637    0.0930047996   -0.1976420770
      6  H         1.0234299236    1.8578672731   -1.4099494852
      7  C        -0.7262251637   -0.0930047996   -0.1976420770
      8  S        -1.7783765530    1.0219050866    0.6582701439
      9  C        -1.4731544644   -1.0730728498   -0.8118973396
     10  C        -3.1957136465    0.1541313507    0.1669984071
     11  C        -2.8781151764   -0.9337637265   -0.6040681018
     12  H        -3.6190580440   -1.6092790270   -1.0170015469
     13  H         4.1747754621   -0.4991602652    0.4716701320
     14  H         3.6190580440    1.6092790270   -1.0170015469
     15  H        -4.1747754621    0.4991602652    0.4716701320
     16  H        -1.0234299236   -1.8578672731   -1.4099494852
   Point Group: c2    Number of degrees of freedom:    22


   Energy is  -1104.838096844

              Constraints and their Current Values
                                        Value     Constraint
   Dihedral:        4   5   7   9      110.000      110.000
 Hessian Updated using BFGS Update

 20 Hessian modes will be used to form the next step
  Hessian Eigenvalues:
     0.038431    0.045000    0.045002    0.045012    0.045834    0.156025
     0.159990    0.160089    0.220577    0.236973    0.249907    0.297987
     0.314476    0.357247    0.358576    0.362497    0.384122    0.434920
     0.467812    0.530712

 Minimum Search - Taking Simple RFO Step
 Searching for Lamda that Minimizes Along All modes
 Value Taken    Lamda =  -0.00005370
 Step Taken.  Stepsize is  0.031825

                             Maximum     Tolerance    Cnvgd?
         Gradient           0.001251      0.000300      NO
         Displacement       0.024192      0.001200      NO
         Energy change     -0.000298      0.000001      NO


 New Cartesian Coordinates Obtained by Inverse Iteration

 Displacement from previous Coordinates is:  0.076976
 ----------------------------------------------------------------
             Standard Nuclear Orientation (Angstroms)
    I     Atom           X                Y                Z
 ----------------------------------------------------------------
    1      S       1.7800245950    -1.0277036018     0.6543048521
    2      C       3.1944919849    -0.1583323638     0.1594706381
    3      C       2.8757177389     0.9342575016    -0.6051619747
    4      C       1.4700058297     1.0755079542    -0.8054704247
    5      C       0.7267761868     0.0938172953    -0.1903655218
    6      H       1.0156250612     1.8640799423    -1.3950977066
    7      C      -0.7267761868    -0.0938172953    -0.1903655218
    8      S      -1.7800245950     1.0277036018     0.6543048521
    9      C      -1.4700058297    -1.0755079542    -0.8054704247
   10      C      -3.1944919849     0.1583323638     0.1594706381
   11      C      -2.8757177389    -0.9342575016    -0.6051619747
   12      H      -3.6156168274    -1.6108782646    -1.0181134552
   13      H       4.1755361324    -0.5043071145     0.4568137253
   14      H       3.6156168274     1.6108782646    -1.0181134552
   15      H      -4.1755361324     0.5043071145     0.4568137253
   16      H      -1.0156250612    -1.8640799423    -1.3950977066
 ----------------------------------------------------------------
 Molecular Point Group                 C2    NOp =  2
 Largest Abelian Subgroup              C2    NOp =  2
 Nuclear Repulsion Energy =   627.6929199022 hartrees
 There are       43 alpha and       43 beta electrons
 Applying Cartesian multipole field
    Component          Value
    ---------          -----
     (2,0,0)        1.00000E-11
     (0,2,0)        2.00000E-11
     (0,0,2)       -3.00000E-11
 Nucleus-field energy     =     0.0000000165 hartrees
 Requested basis set is 6-31++G(d,p)
 There are 76 shells and 234 basis functions
 A cutoff of  1.0D-12 yielded   2530 shell pairs
 There are     24900 function pairs
 Smallest overlap matrix eigenvalue = 1.14E-06
 Guess MOs from SCF MO coefficient file
 Reading MOs from coefficient file
 Reading MOs from coefficient file
 A restricted hybrid HF-DFT SCF calculation will be
 performed using Relaxed Constraint Minimization + Pulay DIIS
 Exchange:     0.2000 Hartree-Fock + 0.0800 Slater + 0.7200 B88
 Correlation:  0.1900 VWN1RPA + 0.8100 LYP
 Using SG-1 standard quadrature grid
 SCF converges when DIIS error is below 1.0E-08
 Geometry optimization detected.  Setting ReadMinima to 0
 Setting SaveMinima to 0
 ---------------------------------------
  Cycle       Energy         DIIS Error
 ---------------------------------------
    1   -1104.8395894016      2.51E-04 Done RCA. Switching to DIIS
    2   -1104.8381224545      3.84E-05
    3   -1104.8380957287      7.08E-05
    4   -1104.8381353310      1.19E-05
    5   -1104.8381362552      4.72E-06
    6   -1104.8381363998      1.97E-06
    7   -1104.8381364276      4.47E-07
    8   -1104.8381364288      1.47E-07
    9   -1104.8381364290      2.01E-08
   10   -1104.8381364290      8.87E-09 Convergence criterion met
 ---------------------------------------
 SCF time:  CPU 5.75 s  wall 5.02 s
 SCF   energy in the final basis set = -1104.8381364290
 Total energy in the final basis set = -1104.8381364290
 
 --------------------------------------------------------------
             Orbital Energies (a.u.) and Symmetries
 --------------------------------------------------------------
 
 Alpha MOs, Restricted
 -- Occupied --                  
-88.919 -88.919 -10.236 -10.236 -10.224 -10.224 -10.204 -10.204
  1 B     1 A     2 A     2 B     3 B     3 A     4 A     4 B                  
-10.203 -10.203  -7.979  -7.979  -5.943  -5.943  -5.939  -5.939
  5 B     5 A     6 B     6 A     7 B     7 A     8 B     8 A                  
 -5.936  -5.936  -0.898  -0.877  -0.768  -0.744  -0.740  -0.705
  9 B     9 A    10 A    10 B    11 A    11 B    12 A    12 B                  
 -0.601  -0.571  -0.560  -0.534  -0.523  -0.478  -0.417  -0.416
 13 A    13 B    14 A    14 B    15 A    15 B    16 A    16 B                  
 -0.411  -0.406  -0.394  -0.376  -0.374  -0.353  -0.348  -0.264
 17 A    17 B    18 A    19 A    18 B    19 B    20 A    21 A                  
 -0.258  -0.256  -0.231
 20 B    22 A    21 B                                                          
 -- Virtual --                   
 -0.042  -0.024  -0.005  -0.003   0.006   0.011   0.019   0.022
 23 A    22 B    24 A    23 B    25 A    24 B    25 B    26 A                  
  0.027   0.035   0.037   0.039   0.044   0.053   0.064   0.064
 27 A    28 A    26 B    27 B    29 A    28 B    29 B    30 A                  
  0.070   0.074   0.085   0.099   0.103   0.106   0.108   0.109
 30 B    31 A    32 A    31 B    33 A    34 A    35 A    32 B                  
  0.117   0.121   0.124   0.131   0.132   0.133   0.135   0.143
 33 B    34 B    35 B    36 A    36 B    37 A    38 A    37 B                  
  0.146   0.150   0.154   0.161   0.168   0.175   0.178   0.179
 38 B    39 A    40 A    39 B    41 A    40 B    42 A    41 B                  
  0.187   0.189   0.195   0.208   0.212   0.222   0.224   0.228
 43 A    42 B    43 B    44 A    44 B    45 A    45 B    46 A                  
  0.236   0.245   0.261   0.267   0.274   0.279   0.288   0.292
 47 A    46 B    47 B    48 A    49 A    48 B    50 A    49 B                  
  0.310   0.314   0.325   0.335   0.358   0.360   0.374   0.389
 50 B    51 B    51 A    52 A    52 B    53 A    53 B    54 A                  
  0.434   0.467   0.469   0.506   0.515   0.529   0.533   0.576
 54 B    55 B    55 A    56 A    57 A    56 B    57 B    58 B                  
  0.581   0.594   0.620   0.625   0.645   0.663   0.674   0.683
 58 A    59 A    59 B    60 A    60 B    61 B    61 A    62 A                  
  0.697   0.710   0.723   0.725   0.738   0.751   0.764   0.779
 63 A    62 B    63 B    64 A    64 B    65 B    65 A    66 B                  
  0.790   0.802   0.806   0.826   0.839   0.883   0.914   0.939
 66 A    67 B    67 A    68 A    68 B    69 A    69 B    70 A                  
  0.942   0.951   0.959   0.966   0.972   0.986   0.994   1.014
 70 B    71 B    71 A    72 B    72 A    73 A    73 B    74 B                  
  1.017   1.024   1.028   1.075   1.087   1.091   1.107   1.111
 75 B    74 A    75 A    76 A    76 B    77 A    78 A    77 B                  
  1.136   1.182   1.208   1.216   1.261   1.267   1.320   1.348
 78 B    79 A    80 A    79 B    80 B    81 A    81 B    82 A                  
  1.352   1.352   1.365   1.390   1.461   1.465   1.482   1.529
 82 B    83 A    83 B    84 A    84 B    85 A    85 B    86 A                  
  1.554   1.690   1.694   1.767   1.801   1.865   1.873   1.884
 86 B    87 A    87 B    88 A    89 A    88 B    90 A    89 B                  
  1.917   1.922   1.966   1.993   2.003   2.025   2.065   2.108
 90 B    91 A    92 A    91 B    93 A    92 B    93 B    94 A                  
  2.128   2.141   2.181   2.191   2.209   2.261   2.264   2.339
 95 A    94 B    95 B    96 A    96 B    97 B    97 A    98 A                  
  2.367   2.369   2.425   2.434   2.467   2.471   2.495   2.506
 99 A    98 B    99 B   100 A   101 A   100 B   101 B   102 A                  
  2.518   2.523   2.579   2.586   2.602   2.648   2.698   2.703
102 B   103 A   103 B   104 A   104 B   105 A   106 A   105 B                  
  2.749   2.844   2.853   2.886   2.931   3.158   3.179   3.268
106 B   107 A   107 B   108 A   108 B   109 B   109 A   110 B                  
  3.271   3.402   3.424   3.721   3.740   3.970   3.973   4.275
110 A   111 A   111 B   112 A   112 B   113 A   113 B   114 A                  
  4.302   4.319   4.329   4.431   4.535   4.658   4.710
115 A   114 B   115 B   116 A   116 B   117 A   117 B                          
 
 Beta MOs, Restricted
 -- Occupied --                  
-88.919 -88.919 -10.236 -10.236 -10.224 -10.224 -10.204 -10.204
  1 B     1 A     2 A     2 B     3 B     3 A     4 A     4 B                  
-10.203 -10.203  -7.979  -7.979  -5.943  -5.943  -5.939  -5.939
  5 B     5 A     6 B     6 A     7 B     7 A     8 B     8 A                  
 -5.936  -5.936  -0.898  -0.877  -0.768  -0.744  -0.740  -0.705
  9 B     9 A    10 A    10 B    11 A    11 B    12 A    12 B                  
 -0.601  -0.571  -0.560  -0.534  -0.523  -0.478  -0.417  -0.416
 13 A    13 B    14 A    14 B    15 A    15 B    16 A    16 B                  
 -0.411  -0.406  -0.394  -0.376  -0.374  -0.353  -0.348  -0.264
 17 A    17 B    18 A    19 A    18 B    19 B    20 A    21 A                  
 -0.258  -0.256  -0.231
 20 B    22 A    21 B                                                          
 -- Virtual --                   
 -0.042  -0.024  -0.005  -0.003   0.006   0.011   0.019   0.022
 23 A    22 B    24 A    23 B    25 A    24 B    25 B    26 A                  
  0.027   0.035   0.037   0.039   0.044   0.053   0.064   0.064
 27 A    28 A    26 B    27 B    29 A    28 B    29 B    30 A                  
  0.070   0.074   0.085   0.099   0.103   0.106   0.108   0.109
 30 B    31 A    32 A    31 B    33 A    34 A    35 A    32 B                  
  0.117   0.121   0.124   0.131   0.132   0.133   0.135   0.143
 33 B    34 B    35 B    36 A    36 B    37 A    38 A    37 B                  
  0.146   0.150   0.154   0.161   0.168   0.175   0.178   0.179
 38 B    39 A    40 A    39 B    41 A    40 B    42 A    41 B                  
  0.187   0.189   0.195   0.208   0.212   0.222   0.224   0.228
 43 A    42 B    43 B    44 A    44 B    45 A    45 B    46 A                  
  0.236   0.245   0.261   0.267   0.274   0.279   0.288   0.292
 47 A    46 B    47 B    48 A    49 A    48 B    50 A    49 B                  
  0.310   0.314   0.325   0.335   0.358   0.360   0.374   0.389
 50 B    51 B    51 A    52 A    52 B    53 A    53 B    54 A                  
  0.434   0.467   0.469   0.506   0.515   0.529   0.533   0.576
 54 B    55 B    55 A    56 A    57 A    56 B    57 B    58 B                  
  0.581   0.594   0.620   0.625   0.645   0.663   0.674   0.683
 58 A    59 A    59 B    60 A    60 B    61 B    61 A    62 A                  
  0.697   0.710   0.723   0.725   0.738   0.751   0.764   0.779
 63 A    62 B    63 B    64 A    64 B    65 B    65 A    66 B                  
  0.790   0.802   0.806   0.826   0.839   0.883   0.914   0.939
 66 A    67 B    67 A    68 A    68 B    69 A    69 B    70 A                  
  0.942   0.951   0.959   0.966   0.972   0.986   0.994   1.014
 70 B    71 B    71 A    72 B    72 A    73 A    73 B    74 B                  
  1.017   1.024   1.028   1.075   1.087   1.091   1.107   1.111
 75 B    74 A    75 A    76 A    76 B    77 A    78 A    77 B                  
  1.136   1.182   1.208   1.216   1.261   1.267   1.320   1.348
 78 B    79 A    80 A    79 B    80 B    81 A    81 B    82 A                  
  1.352   1.352   1.365   1.390   1.461   1.465   1.482   1.529
 82 B    83 A    83 B    84 A    84 B    85 A    85 B    86 A                  
  1.554   1.690   1.694   1.767   1.801   1.865   1.873   1.884
 86 B    87 A    87 B    88 A    89 A    88 B    90 A    89 B                  
  1.917   1.922   1.966   1.993   2.003   2.025   2.065   2.108
 90 B    91 A    92 A    91 B    93 A    92 B    93 B    94 A                  
  2.128   2.141   2.181   2.191   2.209   2.261   2.264   2.339
 95 A    94 B    95 B    96 A    96 B    97 B    97 A    98 A                  
  2.367   2.369   2.425   2.434   2.467   2.471   2.495   2.506
 99 A    98 B    99 B   100 A   101 A   100 B   101 B   102 A                  
  2.518   2.523   2.579   2.586   2.602   2.648   2.698   2.703
102 B   103 A   103 B   104 A   104 B   105 A   106 A   105 B                  
  2.749   2.844   2.853   2.886   2.931   3.158   3.179   3.268
106 B   107 A   107 B   108 A   108 B   109 B   109 A   110 B                  
  3.271   3.402   3.424   3.721   3.740   3.970   3.973   4.275
110 A   111 A   111 B   112 A   112 B   113 A   113 B   114 A                  
  4.302   4.319   4.329   4.431   4.535   4.658   4.710
115 A   114 B   115 B   116 A   116 B   117 A   117 B                          
 --------------------------------------------------------------
 
          Ground-State Mulliken Net Atomic Charges

     Atom                 Charge (a.u.)
  ----------------------------------------
      1 S                     0.062815
      2 C                    -0.054442
      3 C                    -0.366835
      4 C                     0.250006
      5 C                    -0.332080
      6 H                     0.134652
      7 C                    -0.332080
      8 S                     0.062815
      9 C                     0.250006
     10 C                    -0.054442
     11 C                    -0.366835
     12 H                     0.118547
     13 H                     0.187336
     14 H                     0.118547
     15 H                     0.187336
     16 H                     0.134652
  ----------------------------------------
  Sum of atomic charges =     0.000000

 -----------------------------------------------------------------
                    Cartesian Multipole Moments
 -----------------------------------------------------------------
    Charge (ESU x 10^10)
                -0.0000
    Dipole Moment (Debye)
         X      -0.0000      Y       0.0000      Z      -0.6350
       Tot       0.6350
    Quadrupole Moments (Debye-Ang)
        XX     -61.1680     XY       1.4011     YY     -71.4753
        XZ       0.0000     YZ       0.0000     ZZ     -75.0844
    Octopole Moments (Debye-Ang^2)
       XXX      -0.0000    XXY       0.0000    XYY      -0.0000
       YYY      -0.0000    XXZ       5.5422    XYZ     -12.8661
       YYZ      -5.8478    XZZ       0.0000    YZZ       0.0000
       ZZZ       3.3808
    Hexadecapole Moments (Debye-Ang^3)
      XXXX   -1893.5555   XXXY     -10.6645   XXYY    -420.0407
      XYYY       7.8547   YYYY    -440.4656   XXXZ       0.0000
      XXYZ       0.0000   XYYZ       0.0000   YYYZ       0.0000
      XXZZ    -422.4688   XYZZ       3.6212   YYZZ    -106.2275
      XZZZ       0.0000   YZZZ      -0.0000   ZZZZ    -268.1063
 -----------------------------------------------------------------
 Calculating analytic gradient of the SCF energy
 Gradient of SCF Energy
            1           2           3           4           5           6
    1   0.0000926  -0.0000110  -0.0000544   0.0001397   0.0001316  -0.0000188
    2  -0.0002646  -0.0000440   0.0002184  -0.0007800   0.0016519  -0.0000231
    3   0.0004784   0.0001909  -0.0001907  -0.0011161   0.0009322  -0.0002822
            7           8           9          10          11          12
    1  -0.0001316  -0.0000926  -0.0001397   0.0000110   0.0000544  -0.0000663
    2  -0.0016519   0.0002646   0.0007800   0.0000440  -0.0002184  -0.0001577
    3   0.0009322   0.0004784  -0.0011161   0.0001909  -0.0001907  -0.0000778
           13          14          15          16
    1   0.0000776   0.0000663  -0.0000776   0.0000188
    2  -0.0001140   0.0001577   0.0001140   0.0000231
    3   0.0000653  -0.0000778   0.0000653  -0.0002822
 Max gradient component =       1.652E-03
 RMS gradient           =       5.025E-04
 Gradient time:  CPU 1.99 s  wall 1.98 s
 Geometry Optimization Parameters
   NAtoms,    NIC,     NZ,  NCons,   NDum,   NFix, NCnnct, MaxDiis
       16     111       0       1       0       0       0       0

 Cartesian Hessian Update
 Hessian Updated using BFGS Update


** CONSTRAINED OPTIMIZATION IN DELOCALIZED INTERNAL COORDINATES **
   Searching for a Minimum

   Optimization Cycle:   3

                       Coordinates (Angstroms)
     ATOM                X               Y               Z
      1  S         1.7800245950   -1.0277036018    0.6543048521
      2  C         3.1944919849   -0.1583323638    0.1594706381
      3  C         2.8757177389    0.9342575016   -0.6051619747
      4  C         1.4700058297    1.0755079542   -0.8054704247
      5  C         0.7267761868    0.0938172953   -0.1903655218
      6  H         1.0156250612    1.8640799423   -1.3950977066
      7  C        -0.7267761868   -0.0938172953   -0.1903655218
      8  S        -1.7800245950    1.0277036018    0.6543048521
      9  C        -1.4700058297   -1.0755079542   -0.8054704247
     10  C        -3.1944919849    0.1583323638    0.1594706381
     11  C        -2.8757177389   -0.9342575016   -0.6051619747
     12  H        -3.6156168274   -1.6108782646   -1.0181134552
     13  H         4.1755361324   -0.5043071145    0.4568137253
     14  H         3.6156168274    1.6108782646   -1.0181134552
     15  H        -4.1755361324    0.5043071145    0.4568137253
     16  H        -1.0156250612   -1.8640799423   -1.3950977066
   Point Group: c2    Number of degrees of freedom:    22


   Energy is  -1104.838136429

              Constraints and their Current Values
                                        Value     Constraint
   Dihedral:        4   5   7   9      110.000      110.000
 Hessian Updated using BFGS Update

 21 Hessian modes will be used to form the next step
  Hessian Eigenvalues:
     0.014582    0.045000    0.045001    0.045003    0.045225    0.045360
     0.156323    0.160035    0.160739    0.223396    0.249041    0.293557
     0.304314    0.314473    0.357364    0.358181    0.361897    0.399268
     0.434913    0.494706    0.523904

 Minimum Search - Taking Simple RFO Step
 Searching for Lamda that Minimizes Along All modes
 Value Taken    Lamda =  -0.00005830
 Step Taken.  Stepsize is  0.061278

                             Maximum     Tolerance    Cnvgd?
         Gradient           0.000768      0.000300      NO
         Displacement       0.048639      0.001200      NO
         Energy change     -0.000040      0.000001      NO


 New Cartesian Coordinates Obtained by Inverse Iteration

 Displacement from previous Coordinates is:  0.151967
 ----------------------------------------------------------------
             Standard Nuclear Orientation (Angstroms)
    I     Atom           X                Y                Z
 ----------------------------------------------------------------
    1      S       1.7850905438    -1.0361875101     0.6450768840
    2      C       3.1957767811    -0.1657996347     0.1437962783
    3      C       2.8722820734     0.9350378811    -0.6065529663
    4      C       1.4647375592     1.0806654606    -0.7915549207
    5      C       0.7267591080     0.0960820989    -0.1758158438
    6      H       1.0036856692     1.8767610023    -1.3653347230
    7      C      -0.7267591080    -0.0960820989    -0.1758158438
    8      S      -1.7850905438     1.0361875101     0.6450768840
    9      C      -1.4647375592    -1.0806654606    -0.7915549207
   10      C      -3.1957767811     0.1657996347     0.1437962783
   11      C      -2.8722820734    -0.9350378811    -0.6065529663
   12      H      -3.6099176565    -1.6134455516    -1.0198409327
   13      H       4.1800375627    -0.5145260400     0.4266063568
   14      H       3.6099176565     1.6134455516    -1.0198409327
   15      H      -4.1800375627     0.5145260400     0.4266063568
   16      H      -1.0036856692    -1.8767610023    -1.3653347230
 ----------------------------------------------------------------
 Molecular Point Group                 C2    NOp =  2
 Largest Abelian Subgroup              C2    NOp =  2
 Nuclear Repulsion Energy =   627.8090364957 hartrees
 There are       43 alpha and       43 beta electrons
 Applying Cartesian multipole field
    Component          Value
    ---------          -----
     (2,0,0)        1.00000E-11
     (0,2,0)        2.00000E-11
     (0,0,2)       -3.00000E-11
 Nucleus-field energy     =     0.0000000167 hartrees
 Requested basis set is 6-31++G(d,p)
 There are 76 shells and 234 basis functions
 A cutoff of  1.0D-12 yielded   2530 shell pairs
 There are     24900 function pairs
 Smallest overlap matrix eigenvalue = 1.12E-06
 Guess MOs from SCF MO coefficient file
 Reading MOs from coefficient file
 Reading MOs from coefficient file
 A restricted hybrid HF-DFT SCF calculation will be
 performed using Relaxed Constraint Minimization + Pulay DIIS
 Exchange:     0.2000 Hartree-Fock + 0.0800 Slater + 0.7200 B88
 Correlation:  0.1900 VWN1RPA + 0.8100 LYP
 Using SG-1 standard quadrature grid
 SCF converges when DIIS error is below 1.0E-08
 Geometry optimization detected.  Setting ReadMinima to 0
 Setting SaveMinima to 0
 ---------------------------------------
  Cycle       Energy         DIIS Error
 ---------------------------------------
    1   -1104.8412664085      5.09E-04 Done RCA. Switching to DIIS
    2   -1104.8381334465      6.36E-05
    3   -1104.8380653038      1.16E-04
    4   -1104.8381715505      1.50E-05
    5   -1104.8381727013      8.82E-06
    6   -1104.8381731913      3.75E-06
    7   -1104.8381732905      7.84E-07
    8   -1104.8381732946      2.24E-07
    9   -1104.8381732950      3.73E-08
   10   -1104.8381732950      1.23E-08
   11   -1104.8381732950      4.91E-09 Convergence criterion met
 ---------------------------------------
 SCF time:  CPU 6.30 s  wall 5.50 s
 SCF   energy in the final basis set = -1104.8381732950
 Total energy in the final basis set = -1104.8381732950
 
 --------------------------------------------------------------
             Orbital Energies (a.u.) and Symmetries
 --------------------------------------------------------------
 
 Alpha MOs, Restricted
 -- Occupied --                  
-88.919 -88.919 -10.236 -10.236 -10.224 -10.224 -10.204 -10.204
  1 B     1 A     2 A     2 B     3 B     3 A     4 A     4 B                  
-10.203 -10.203  -7.979  -7.979  -5.943  -5.943  -5.939  -5.939
  5 B     5 A     6 B     6 A     7 B     7 A     8 B     8 A                  
 -5.936  -5.936  -0.898  -0.878  -0.769  -0.744  -0.740  -0.705
  9 B     9 A    10 A    10 B    11 A    11 B    12 A    12 B                  
 -0.601  -0.572  -0.560  -0.534  -0.523  -0.478  -0.417  -0.416
 13 A    13 B    14 A    14 B    15 A    15 B    16 A    16 B                  
 -0.410  -0.405  -0.394  -0.376  -0.375  -0.353  -0.348  -0.264
 17 A    17 B    18 A    19 A    18 B    19 B    20 A    21 A                  
 -0.258  -0.257  -0.230
 20 B    22 A    21 B                                                          
 -- Virtual --                   
 -0.042  -0.023  -0.005  -0.003   0.007   0.011   0.019   0.022
 23 A    22 B    24 A    23 B    25 A    24 B    25 B    26 A                  
  0.027   0.035   0.037   0.039   0.045   0.053   0.064   0.064
 27 A    28 A    26 B    27 B    29 A    28 B    29 B    30 A                  
  0.070   0.074   0.086   0.098   0.103   0.106   0.109   0.109
 30 B    31 A    32 A    31 B    33 A    34 A    35 A    32 B                  
  0.117   0.121   0.125   0.131   0.132   0.133   0.135   0.143
 33 B    34 B    35 B    36 A    36 B    37 A    38 A    37 B                  
  0.145   0.151   0.154   0.161   0.167   0.174   0.179   0.179
 38 B    39 A    40 A    39 B    41 A    40 B    42 A    41 B                  
  0.187   0.189   0.195   0.208   0.211   0.222   0.224   0.229
 43 A    42 B    43 B    44 A    44 B    45 A    45 B    46 A                  
  0.236   0.244   0.262   0.268   0.274   0.279   0.288   0.291
 47 A    46 B    47 B    48 A    49 A    48 B    50 A    49 B                  
  0.311   0.314   0.325   0.336   0.358   0.360   0.373   0.389
 50 B    51 B    51 A    52 A    52 B    53 A    53 B    54 A                  
  0.434   0.467   0.469   0.507   0.516   0.528   0.531   0.575
 54 B    55 B    55 A    56 A    57 A    56 B    57 B    58 B                  
  0.582   0.594   0.620   0.624   0.646   0.662   0.674   0.682
 58 A    59 A    59 B    60 A    60 B    61 B    61 A    62 A                  
  0.697   0.712   0.723   0.725   0.738   0.753   0.764   0.779
 63 A    62 B    63 B    64 A    64 B    65 B    65 A    66 B                  
  0.790   0.803   0.805   0.826   0.839   0.882   0.914   0.938
 66 A    67 B    67 A    68 A    68 B    69 A    69 B    70 A                  
  0.943   0.951   0.960   0.965   0.971   0.986   0.995   1.014
 70 B    71 B    71 A    72 B    72 A    73 A    73 B    74 B                  
  1.018   1.023   1.028   1.075   1.088   1.091   1.106   1.111
 75 B    74 A    75 A    76 A    76 B    77 A    78 A    77 B                  
  1.136   1.182   1.208   1.215   1.260   1.268   1.321   1.349
 78 B    79 A    80 A    79 B    80 B    81 A    81 B    82 A                  
  1.351   1.352   1.365   1.392   1.461   1.461   1.484   1.533
 82 B    83 A    83 B    84 A    84 B    85 A    85 B    86 A                  
  1.551   1.689   1.694   1.766   1.798   1.867   1.873   1.884
[...]
  3.271   3.403   3.424   3.721   3.741   3.971   3.974   4.275
110 A   111 A   111 B   112 A   112 B   113 A   113 B   114 A                  
  4.303   4.317   4.328   4.430   4.535   4.658   4.710
115 A   114 B   115 B   116 A   116 B   117 A   117 B                          
 --------------------------------------------------------------
 
          Ground-State Mulliken Net Atomic Charges

     Atom                 Charge (a.u.)
  ----------------------------------------
      1 S                     0.060661
      2 C                    -0.049983
      3 C                    -0.364544
      4 C                     0.241529
      5 C                    -0.328510
      6 H                     0.135263
      7 C                    -0.328510
      8 S                     0.060661
      9 C                     0.241529
     10 C                    -0.049983
     11 C                    -0.364544
     12 H                     0.118101
     13 H                     0.187481
     14 H                     0.118101
     15 H                     0.187481
     16 H                     0.135263
  ----------------------------------------
  Sum of atomic charges =    -0.000000

 -----------------------------------------------------------------
                    Cartesian Multipole Moments
 -----------------------------------------------------------------
    Charge (ESU x 10^10)
                -0.0000
    Dipole Moment (Debye)
         X      -0.0000      Y      -0.0000      Z      -0.6592
       Tot       0.6592
    Quadrupole Moments (Debye-Ang)
        XX     -61.1521     XY       1.2672     YY     -71.2928
        XZ       0.0000     YZ      -0.0000     ZZ     -75.3227
    Octopole Moments (Debye-Ang^2)
       XXX      -0.0000    XXY       0.0000    XYY      -0.0000
       YYY      -0.0000    XXZ       4.5904    XYZ     -12.5821
       YYZ      -5.6090    XZZ       0.0000    YZZ      -0.0000
       ZZZ       4.3252
    Hexadecapole Moments (Debye-Ang^3)
      XXXX   -1893.7794   XXXY      -9.8644   XXYY    -420.6013
      XYYY      12.3648   YYYY    -447.7501   XXXZ       0.0000
      XXYZ       0.0000   XYYZ       0.0000   YYYZ       0.0000
      XXZZ    -423.4700   XYZZ       5.4164   YYZZ    -106.7905
      XZZZ       0.0000   YZZZ      -0.0000   ZZZZ    -259.3220
 -----------------------------------------------------------------
 Calculating analytic gradient of the SCF energy
 Gradient of SCF Energy
            1           2           3           4           5           6
    1  -0.0000076   0.0000201  -0.0000443   0.0002215  -0.0004637   0.0000034
    2   0.0000372   0.0000164   0.0000155  -0.0013505   0.0028475   0.0000294
    3  -0.0000147   0.0000412   0.0000151  -0.0020153   0.0019607   0.0000445
            7           8           9          10          11          12
    1   0.0004637   0.0000076  -0.0002215  -0.0000201   0.0000443  -0.0000040
    2  -0.0028475  -0.0000372   0.0013505  -0.0000164  -0.0000155   0.0000094
    3   0.0019607  -0.0000147  -0.0020153   0.0000412   0.0000151  -0.0000117
           13          14          15          16
    1  -0.0000031   0.0000040   0.0000031  -0.0000034
    2  -0.0000011  -0.0000094   0.0000011  -0.0000294
    3  -0.0000197  -0.0000117  -0.0000197   0.0000445
 Max gradient component =       2.847E-03
 RMS gradient           =       8.687E-04
 Gradient time:  CPU 1.98 s  wall 2.00 s
 Geometry Optimization Parameters
   NAtoms,    NIC,     NZ,  NCons,   NDum,   NFix, NCnnct, MaxDiis
       16     111       0       1       0       0       0       0

 Cartesian Hessian Update
 Hessian Updated using BFGS Update


** CONSTRAINED OPTIMIZATION IN DELOCALIZED INTERNAL COORDINATES **
   Searching for a Minimum

   Optimization Cycle:   7

                       Coordinates (Angstroms)
     ATOM                X               Y               Z
      1  S         1.7901963710   -1.0437339821    0.6356653823
      2  C         3.1986111840   -0.1718768842    0.1288223048
      3  C         2.8691027061    0.9367657054   -0.6069804473
      4  C         1.4606677021    1.0872231075   -0.7772731647
      5  C         0.7254016051    0.0993857207   -0.1618678544
      6  H         0.9980958614    1.8895043022   -1.3410694850
      7  C        -0.7254016051   -0.0993857207   -0.1618678544
      8  S        -1.7901963710    1.0437339821    0.6356653823
      9  C        -1.4606677021   -1.0872231075   -0.7772731647
     10  C        -3.1986111840    0.1718768842    0.1288223048
     11  C        -2.8691027061   -0.9367657054   -0.6069804473
     12  H        -3.6038735118   -1.6175279786   -1.0216872874
     13  H         4.1839203139   -0.5257913377    0.4007706843
     14  H         3.6038735118    1.6175279786   -1.0216872874
     15  H        -4.1839203139    0.5257913377    0.4007706843
     16  H        -0.9980958614   -1.8895043022   -1.3410694850
   Point Group: c2    Number of degrees of freedom:    22


   Energy is  -1104.838190683

              Constraints and their Current Values
                                        Value     Constraint
   Dihedral:        4   5   7   9      110.000      110.000
 Hessian Updated using BFGS Update

 21 Hessian modes will be used to form the next step
  Hessian Eigenvalues:
     0.008428    0.023947    0.045001    0.045027    0.045161    0.045416
     0.150939    0.160093    0.160606    0.223077    0.241283    0.289125
     0.297304    0.314369    0.357332    0.359188    0.362274    0.387125
     0.433823    0.490414    0.530825

 Minimum Search - Taking Simple RFO Step
 Searching for Lamda that Minimizes Along All modes
 Value Taken    Lamda =   0.00000000
 Step Taken.  Stepsize is  0.002966

                             Maximum     Tolerance    Cnvgd?
         Gradient           0.000066      0.000300     YES
         Displacement       0.002015      0.001200      NO
         Energy change     -0.000001      0.000001     YES

 Final energy is   -1104.83819068341     


 ******************************
 **  OPTIMIZATION CONVERGED  **
 ******************************

                       Coordinates (Angstroms)
     ATOM                X               Y               Z
      1  S         1.7901963710   -1.0437339821    0.6356653823
      2  C         3.1986111840   -0.1718768842    0.1288223048
      3  C         2.8691027061    0.9367657054   -0.6069804473
      4  C         1.4606677021    1.0872231075   -0.7772731647
      5  C         0.7254016051    0.0993857207   -0.1618678544
      6  H         0.9980958614    1.8895043022   -1.3410694850
      7  C        -0.7254016051   -0.0993857207   -0.1618678544
      8  S        -1.7901963710    1.0437339821    0.6356653823
      9  C        -1.4606677021   -1.0872231075   -0.7772731647
     10  C        -3.1986111840    0.1718768842    0.1288223048
     11  C        -2.8691027061   -0.9367657054   -0.6069804473
     12  H        -3.6038735118   -1.6175279786   -1.0216872874
     13  H         4.1839203139   -0.5257913377    0.4007706843
     14  H         3.6038735118    1.6175279786   -1.0216872874
     15  H        -4.1839203139    0.5257913377    0.4007706843
     16  H        -0.9980958614   -1.8895043022   -1.3410694850

Z-matrix Print:
$molecule
0 1
S 
C  1 1.732240
H  2 1.081686 1 120.157444
C  2 1.370792 1 111.633820 3 -179.956787 0
H  4 1.084116 2 123.385384 1 179.828267 0
C  4 1.426649 2 112.747774 1 0.427186 0
H  6 1.084202 4 124.146507 2 178.942800 0
C  6 1.376649 4 113.468417 2 -0.491454 0
C  8 1.464357 6 128.796590 4 177.562258 0
C  9 1.376649 8 128.796590 6 -109.999985 0
H  10 1.084202 9 122.382566 8 -1.883308 0
C  10 1.426649 9 113.468417 8 177.562258 0
H  12 1.084116 10 123.863939 9 -179.889198 0
C  12 1.370792 10 112.747774 9 -0.491454 0
H  14 1.081686 12 128.208719 10 -179.525263 0
S  14 1.732240 12 111.633820 10 0.427186 0
$end

 
 --------------------------------------------------------------
             Orbital Energies (a.u.) and Symmetries
 --------------------------------------------------------------
 
 Alpha MOs, Restricted
 -- Occupied --                  
-88.919 -88.919 -10.236 -10.236 -10.224 -10.224 -10.204 -10.204
  1 B     1 A     2 A     2 B     3 B     3 A     4 A     4 B                  
-10.203 -10.203  -7.979  -7.979  -5.943  -5.943  -5.939  -5.939
  5 B     5 A     6 B     6 A     7 B     7 A     8 B     8 A                  
 -5.936  -5.936  -0.898  -0.878  -0.769  -0.744  -0.740  -0.705
  9 B     9 A    10 A    10 B    11 A    11 B    12 A    12 B                  
 -0.601  -0.572  -0.560  -0.534  -0.523  -0.478  -0.417  -0.417
 13 A    13 B    14 A    14 B    15 A    15 B    16 A    16 B                  
 -0.410  -0.406  -0.395  -0.376  -0.375  -0.353  -0.348  -0.264
 17 A    17 B    18 A    19 A    18 B    19 B    20 A    21 A                  
 -0.258  -0.257  -0.229
 20 B    22 A    21 B                                                          
 -- Virtual --                   
 -0.042  -0.022  -0.006  -0.003   0.007   0.011   0.019   0.022
 23 A    22 B    24 A    23 B    25 A    24 B    25 B    26 A                  
  0.027   0.035   0.037   0.039   0.045   0.053   0.063   0.063
 27 A    28 A    26 B    27 B    29 A    28 B    29 B    30 A                  
  0.071   0.075   0.086   0.098   0.103   0.106   0.109   0.109
 30 B    31 A    32 A    31 B    33 A    34 A    32 B    35 A                  
  0.117   0.121   0.125   0.131   0.132   0.133   0.135   0.143
 33 B    34 B    35 B    36 A    36 B    37 A    38 A    37 B                  
  0.145   0.151   0.154   0.162   0.167   0.174   0.179   0.179
 38 B    39 A    40 A    39 B    41 A    40 B    42 A    41 B                  
  0.187   0.190   0.196   0.208   0.211   0.223   0.225   0.229
 43 A    42 B    43 B    44 A    44 B    45 A    45 B    46 A                  
  0.235   0.244   0.263   0.268   0.274   0.280   0.288   0.291
 47 A    46 B    47 B    48 A    49 A    48 B    50 A    49 B                  
  0.312   0.314   0.324   0.336   0.358   0.360   0.373   0.390
 50 B    51 B    51 A    52 A    52 B    53 A    53 B    54 A                  
  0.435   0.466   0.469   0.508   0.517   0.528   0.531   0.575
 54 B    55 B    55 A    56 A    57 A    56 B    57 B    58 B                  
  0.582   0.595   0.620   0.622   0.647   0.662   0.675   0.682
 58 A    59 A    59 B    60 A    60 B    61 B    61 A    62 A                  
  0.697   0.712   0.723   0.725   0.738   0.755   0.763   0.779
 63 A    62 B    63 B    64 A    64 B    65 B    65 A    66 B                  
  0.790   0.804   0.805   0.827   0.839   0.882   0.914   0.937
 66 A    67 B    67 A    68 A    68 B    69 A    69 B    70 A                  
  0.944   0.951   0.961   0.964   0.970   0.987   0.995   1.013
 70 B    71 B    71 A    72 B    72 A    73 A    73 B    74 B                  
  1.018   1.022   1.028   1.075   1.089   1.091   1.105   1.112
 75 B    74 A    75 A    76 A    76 B    77 A    78 A    77 B                  
  1.137   1.182   1.208   1.213   1.260   1.267   1.320   1.349
 78 B    79 A    80 A    79 B    80 B    81 A    81 B    82 A                  
  1.351   1.352   1.365   1.394   1.460   1.460   1.486   1.536
 82 B    83 A    83 B    84 A    84 B    85 A    85 B    86 A                  
  1.549   1.689   1.695   1.765   1.796   1.866   1.873   1.885
 86 B    87 A    87 B    88 A    89 A    88 B    90 A    89 B                  
  1.919   1.922   1.966   1.994   2.003   2.029   2.068   2.109
 90 B    91 A    92 A    91 B    93 A    92 B    93 B    94 A                  
  2.128   2.141   2.182   2.189   2.210   2.257   2.265   2.342
 95 A    94 B    95 B    96 A    96 B    97 B    97 A    98 A                  
  2.367   2.369   2.424   2.436   2.467   2.469   2.496   2.506
 99 A    98 B    99 B   100 A   101 A   100 B   101 B   102 A                  
  2.520   2.522   2.579   2.587   2.605   2.648   2.699   2.702
102 B   103 A   103 B   104 A   104 B   105 A   106 A   105 B                  
  2.750   2.844   2.853   2.886   2.931   3.159   3.180   3.269
106 B   107 A   107 B   108 A   108 B   109 B   109 A   110 B                  
  3.271   3.403   3.424   3.721   3.741   3.971   3.974   4.275
110 A   111 A   111 B   112 A   112 B   113 A   113 B   114 A                  
  4.303   4.317   4.328   4.430   4.535   4.658   4.710
115 A   114 B   115 B   116 A   116 B   117 A   117 B                          
 
 Beta MOs, Restricted
 -- Occupied --                  
-88.919 -88.919 -10.236 -10.236 -10.224 -10.224 -10.204 -10.204
  1 B     1 A     2 A     2 B     3 B     3 A     4 A     4 B                  
-10.203 -10.203  -7.979  -7.979  -5.943  -5.943  -5.939  -5.939
  5 B     5 A     6 B     6 A     7 B     7 A     8 B     8 A                  
 -5.936  -5.936  -0.898  -0.878  -0.769  -0.744  -0.740  -0.705
  9 B     9 A    10 A    10 B    11 A    11 B    12 A    12 B                  
 -0.601  -0.572  -0.560  -0.534  -0.523  -0.478  -0.417  -0.417
 13 A    13 B    14 A    14 B    15 A    15 B    16 A    16 B                  
 -0.410  -0.406  -0.395  -0.376  -0.375  -0.353  -0.348  -0.264
 17 A    17 B    18 A    19 A    18 B    19 B    20 A    21 A                  
 -0.258  -0.257  -0.229
 20 B    22 A    21 B                                                          
 -- Virtual --                   
 -0.042  -0.022  -0.006  -0.003   0.007   0.011   0.019   0.022
 23 A    22 B    24 A    23 B    25 A    24 B    25 B    26 A                  
  0.027   0.035   0.037   0.039   0.045   0.053   0.063   0.063
 27 A    28 A    26 B    27 B    29 A    28 B    29 B    30 A                  
  0.071   0.075   0.086   0.098   0.103   0.106   0.109   0.109
 30 B    31 A    32 A    31 B    33 A    34 A    32 B    35 A                  
  0.117   0.121   0.125   0.131   0.132   0.133   0.135   0.143
 33 B    34 B    35 B    36 A    36 B    37 A    38 A    37 B                  
  0.145   0.151   0.154   0.162   0.167   0.174   0.179   0.179
 38 B    39 A    40 A    39 B    41 A    40 B    42 A    41 B                  
  0.187   0.190   0.196   0.208   0.211   0.223   0.225   0.229
 43 A    42 B    43 B    44 A    44 B    45 A    45 B    46 A                  
  0.235   0.244   0.263   0.268   0.274   0.280   0.288   0.291
 47 A    46 B    47 B    48 A    49 A    48 B    50 A    49 B                  
  0.312   0.314   0.324   0.336   0.358   0.360   0.373   0.390
 50 B    51 B    51 A    52 A    52 B    53 A    53 B    54 A                  
  0.435   0.466   0.469   0.508   0.517   0.528   0.531   0.575
 54 B    55 B    55 A    56 A    57 A    56 B    57 B    58 B                  
  0.582   0.595   0.620   0.622   0.647   0.662   0.675   0.682
 58 A    59 A    59 B    60 A    60 B    61 B    61 A    62 A                  
  0.697   0.712   0.723   0.725   0.738   0.755   0.763   0.779
 63 A    62 B    63 B    64 A    64 B    65 B    65 A    66 B                  
  0.790   0.804   0.805   0.827   0.839   0.882   0.914   0.937
 66 A    67 B    67 A    68 A    68 B    69 A    69 B    70 A                  
  0.944   0.951   0.961   0.964   0.970   0.987   0.995   1.013
 70 B    71 B    71 A    72 B    72 A    73 A    73 B    74 B                  
  1.018   1.022   1.028   1.075   1.089   1.091   1.105   1.112
 75 B    74 A    75 A    76 A    76 B    77 A    78 A    77 B                  
  1.137   1.182   1.208   1.213   1.260   1.267   1.320   1.349
 78 B    79 A    80 A    79 B    80 B    81 A    81 B    82 A                  
  1.351   1.352   1.365   1.394   1.460   1.460   1.486   1.536
 82 B    83 A    83 B    84 A    84 B    85 A    85 B    86 A                  
  1.549   1.689   1.695   1.765   1.796   1.866   1.873   1.885
 86 B    87 A    87 B    88 A    89 A    88 B    90 A    89 B                  
  1.919   1.922   1.966   1.994   2.003   2.029   2.068   2.109
 90 B    91 A    92 A    91 B    93 A    92 B    93 B    94 A                  
  2.128   2.141   2.182   2.189   2.210   2.257   2.265   2.342
 95 A    94 B    95 B    96 A    96 B    97 B    97 A    98 A                  
  2.367   2.369   2.424   2.436   2.467   2.469   2.496   2.506
 99 A    98 B    99 B   100 A   101 A   100 B   101 B   102 A                  
  2.520   2.522   2.579   2.587   2.605   2.648   2.699   2.702
102 B   103 A   103 B   104 A   104 B   105 A   106 A   105 B                  
  2.750   2.844   2.853   2.886   2.931   3.159   3.180   3.269
106 B   107 A   107 B   108 A   108 B   109 B   109 A   110 B                  
  3.271   3.403   3.424   3.721   3.741   3.971   3.974   4.275
110 A   111 A   111 B   112 A   112 B   113 A   113 B   114 A                  
  4.303   4.317   4.328   4.430   4.535   4.658   4.710
115 A   114 B   115 B   116 A   116 B   117 A   117 B                          
 --------------------------------------------------------------
 
          Ground-State Mulliken Net Atomic Charges

     Atom                 Charge (a.u.)
  ----------------------------------------
      1 S                     0.060661
      2 C                    -0.049983
      3 C                    -0.364544
      4 C                     0.241529
      5 C                    -0.328510
      6 H                     0.135263
      7 C                    -0.328510
      8 S                     0.060661
      9 C                     0.241529
     10 C                    -0.049983
     11 C                    -0.364544
     12 H                     0.118101
     13 H                     0.187481
     14 H                     0.118101
     15 H                     0.187481
     16 H                     0.135263
  ----------------------------------------
  Sum of atomic charges =    -0.000000

 -----------------------------------------------------------------
                    Cartesian Multipole Moments
 -----------------------------------------------------------------
    Charge (ESU x 10^10)
                -0.0000
    Dipole Moment (Debye)
         X      -0.0000      Y      -0.0000      Z      -0.6592
       Tot       0.6592
    Quadrupole Moments (Debye-Ang)
        XX     -61.1521     XY       1.2672     YY     -71.2928
        XZ       0.0000     YZ      -0.0000     ZZ     -75.3227
    Octopole Moments (Debye-Ang^2)
       XXX      -0.0000    XXY       0.0000    XYY      -0.0000
       YYY      -0.0000    XXZ       4.5904    XYZ     -12.5821
       YYZ      -5.6090    XZZ       0.0000    YZZ      -0.0000
       ZZZ       4.3252
    Hexadecapole Moments (Debye-Ang^3)
      XXXX   -1893.7794   XXXY      -9.8644   XXYY    -420.6013
      XYYY      12.3648   YYYY    -447.7501   XXXZ       0.0000
      XXYZ       0.0000   XYYZ       0.0000   YYYZ       0.0000
      XXZZ    -423.4700   XYZZ       5.4164   YYZZ    -106.7905
      XZZZ       0.0000   YZZZ      -0.0000   ZZZZ    -259.3220
 -----------------------------------------------------------------
Archival summary:
1\1\nid01044\OPT\ProcedureUnspecified\BasisUnspecified\286\FriSep218:57:332016FriSep218:57:332016\0\\#,OPT,ProcedureUnspecified,BasisUnspecified,\\0,1\S\C,1,1.73224\H,2,1.08169,1,120.157\C,2,1.37079,1,111.634,3,-179.957,0\H,4,1.08412,2,123.385,1,179.828,0\C,4,1.42665,2,112.748,1,0.427186,0\H,6,1.0842,4,124.147,2,178.943,0\C,6,1.37665,4,113.468,2,-0.491454,0\C,8,1.46436,6,128.797,4,177.562,0\C,9,1.37665,8,128.797,6,-110,0\H,10,1.0842,9,122.383,8,-1.88331,0\C,10,1.42665,9,113.468,8,177.562,0\H,12,1.08412,10,123.864,9,-179.889,0\C,12,1.37079,10,112.748,9,-0.491454,0\H,14,1.08169,12,128.209,10,-179.525,0\S,14,1.73224,12,111.634,10,0.427186,0\\\@

 Total job time:  93.51s(wall), 103.31s(cpu) 
 Fri Sep  2 18:57:33 2016

        *************************************************************
        *                                                           *
        *  Thank you very much for using Q-Chem.  Have a nice day.  *
        *                                                           *
        *************************************************************


0 sent ACK to 0 
now end server 0 ... 
