srun -N 1 --ntasks-per-node 16 --nodelist nid01047 /global/project/projectdirs/jcesr/qchem/qc44/cnl_qc441/dist/exe/qcprog.cori.exe .pt_charged_dft_-50.0.in.25550.qcin.1 /dev/shm/eg_qchem/qchem25550/
Process 1 of 16 is on nid01047 - thread support 0
Process 2 of 16 is on nid01047 - thread support 0
Process 3 of 16 is on nid01047 - thread support 0
Process 4 of 16 is on nid01047 - thread support 0
Process 5 of 16 is on nid01047 - thread support 0
Process 6 of 16 is on nid01047 - thread support 0
Process 0 of 16 is on nid01047 - thread support 0
Process 15 of 16 is on nid01047 - thread support 0
initial socket setup ...start
initial socket setup ...done 
now start server 0 ... 
nid01047 10.128.4
Q-Chem Developer Version! Running on 10.128.4.*
                  Welcome to Q-Chem
     A Quantum Leap Into The Future Of Chemistry


 Q-Chem 4.4, Q-Chem, Inc., Pleasanton, CA (2016)

 Y. Shao,  Z. Gan,  E. Epifanovsky,  A. T. B. Gilbert,  M. Wormit,  
 J. Kussmann,  A. W. Lange,  A. Behn,  J. Deng,  X. Feng,  D. Ghosh,  
 M. Goldey,  P. R. Horn,  L. D. Jacobson,  I. Kaliman,  F.Rob,  
 R. Z. Khaliullin,  T. Kus,  A. Landau,  J. Liu,  E. I. Proynov,  Y. M. Rhee,  
 R. M. Richard,  M. A. Rohrdanz,  R. P. Steele,  E. J. Sundstrom,  
 H. L. Woodcock III,  P. M. Zimmerman,  D. Zuev,  B. Albrecht,  E. Alguire,  
 B. Austin,  S. A. Baeppler,  G. J. O. Beran,  Y. A. Bernard,  E. Berquist,  
 K. Brandhorst,  K. B. Bravaya,  S. T. Brown,  D. Casanova,  C.-M. Chang,  
 Y. Chen,  S. H. Chien,  K. D. Closser,  M. P. Coons,  D. L. Crittenden,  
 S. Dasgupta,  M. Diedenhofen,  R. A. DiStasio Jr.,  H. Do,  A. D. Dutoi,  
 R. G. Edgar,  P.-T. Fang,  S. Fatehi,  Q. Feng,  L. Fusti-Molnar,  
 A. Ghysels,  A. Golubeva-Zadorozhnaya,  J. Gomes,  A. Gunina,  
 M. W. D. Hanson-Heine,  P. H. P. Harbach,  A. W. Hauser,  E. G. Hohenstein,  
 Z. C. Holden,  K. Hui,  T.-C. Jagau,  H. Ji,  B. Kaduk,  K. Khistyaev,  
 Jaehoon Kim,  Jihan Kim,  R. A. King,  P. Klunzinger,  D. Kosenkov,  
 T. Kowalczyk,  C. M. Krauter,  A. Kunitsa,  K. U. Lao,  A. Laurent,  
 K. V. Lawler,  D. Lefrancois,  S. Lehtola,  S. V. Levchenko,  C. Y. Lin,  
 Y.-S. Lin,  F. Liu,  E. Livshits,  R. C. Lochan,  A. Luenser,  P. Manohar,  
 S. F. Manzer,  S.-P. Mao,  Y. Mao,  N. Mardirossian,  A. V. Marenich,  
 L. A. Martinez-Martinez,  S. A. Maurer,  N. J. Mayhall,  J.-M. Mewes,  
 A. F. Morrison,  K. Nanda,  C. M. Oana,  R. Olivares-Amaya,  D. P. O'Neill,  
 J. A. Parkhill,  T. M. Perrine,  R. Peverati,  P. A. Pieniazek,  F. Plasser,  
 A. Prociuk,  D. R. Rehn,  E. Rosta,  N. J. Russ,  N. Sergueev,  
 S. M. Sharada,  S. Sharma,  D. W. Small,  A. Sodt,  T. Stauch,  T. Stein,  
 D. Stuck,  Y.-C. Su,  A. J. W. Thom,  T. Tsuchimochi,  L. Vogt,  O. Vydrov,  
 T. Wang,  M. A. Watson,  J. Wenzel,  A. White,  C. F. Williams,  
 V. Vanovschi,  S. Yeganeh,  S. R. Yost,  Z.-Q. You,  I. Y. Zhang,  X. Zhang,  
 Y. Zhao,  B. R. Brooks,  G. K. L. Chan,  D. M. Chipman,  C. J. Cramer,  
 W. A. Goddard III,  M. S. Gordon,  W. J. Hehre,  A. Klamt,  
 H. F. Schaefer III,  M. W. Schmidt,  C. D. Sherrill,  D. G. Truhlar,  
 A. Warshel,  X. Xu,  A. Aspuru-Guzik,  R. Baer,  A. T. Bell,  N. A. Besley,  
 J.-D. Chai,  A. Dreuw,  B. D. Dunietz,  T. R. Furlani,  S. R. Gwaltney,  
 C.-P. Hsu,  Y. Jung,  J. Kong,  D. S. Lambrecht,  W. Liang,  C. Ochsenfeld,  
 V. A. Rassolov,  L. V. Slipchenko,  J. E. Subotnik,  T. Van Voorhis,  
 J. M. Herbert,  A. I. Krylov,  P. M. W. Gill,  M. Head-Gordon

 Contributors to earlier versions of Q-Chem not listed above: 
 R. D. Adamson,  J. Baker,  E. F. C. Byrd,  A. K. Chakraborty,  C.-L. Cheng,  
 H. Dachsel,  R. J. Doerksen,  G. Hawkins,  A. Heyden,  S. Hirata,  
 G. Kedziora,  F. J. Keil,  C. Kelley,  P. P. Korambath,  W. Kurlancheek,  
 A. M. Lee,  M. S. Lee,  D. Liotard,  I. Lotan,  P. E. Maslen,  N. Nair,  
 D. Neuhauser,  R. Olson,  B. Peters,  J. Ritchie,  N. E. Schultz,  
 N. Shenvi,  A. C. Simmonett,  K. S. Thanthiriwatte,  Q. Wu,  W. Zhang

 Please cite Q-Chem as follows:
 Y. Shao et al., Mol. Phys. 113, 184-215 (2015)
 DOI: 10.1080/00268976.2014.952696

 Q-Chem 4.4.1 for Intel X86 EM64T Linux

 Parts of Q-Chem use Armadillo 5.200.1 (Boston Tea Smuggler).
 http://arma.sourceforge.net/

 Q-Chem begins on Tue Sep  6 23:50:03 2016  

Host: nid01047
0

     Scratch files written to /dev/shm/eg_qchem/qchem25550.0//
 Parallel job on  16  processors

Checking the input file for inconsistencies... 	...done.

--------------------------------------------------------------
User input:
--------------------------------------------------------------
$comment
<SCF Fix Strategy>{
    "current_method_id": 0, 
    "methods": [
        "increase_iter", 
        "diis_gdm", 
        "gwh", 
        "rca", 
        "gdm", 
        "core+gdm", 
        "fon"
    ], 
    "version": 2.0
}</SCF Fix Strategy>
$end


$molecule
 -1  2
 S           1.83794975       -1.27576249       -0.14871336
 C           3.23937819       -0.19806434       -0.14823333
 C           2.83626844        1.12431397       -0.14890172
 C           1.43724334        1.31134696       -0.14931220
 C           0.69606563        0.10654716       -0.14908151
 H           0.95807640        2.28459073       -0.14860036
 C          -0.69610330       -0.10652413       -0.14907621
 S          -1.45542738       -1.22382181       -1.32795376
 C          -1.70542336        0.44069007        0.67719048
 C          -3.06901926       -0.91526615       -0.67484596
 C          -3.00592548       -0.01601577        0.37327153
 H          -3.89014882        0.30969407        0.91625000
 H           4.24016475       -0.60708034       -0.14954918
 H           3.54430111        1.94981573       -0.14910914
 H          -3.93151381       -1.40983566       -1.09955024
 H          -1.48350354        1.14827204        1.46895071
$end


$rem
         jobtype = opt
        exchange = b3lyp
           basis = 6-31++g**
  max_scf_cycles = 200
      mem_static = 100
       mem_total = 1500
   scf_algorithm = diis
       scf_guess = sad
$end


$opt
CONSTRAINT
tors 4 5 7 9 -50.0
ENDCONSTRAINT
$end

--------------------------------------------------------------
 Atom   8: ( -1.6592240692, -0.5539722366,  1.0596146437)
         ->( -1.6592240076, -0.5539722736,  1.0596146265)
 Atom  10: ( -3.1837338039, -0.1036028390,  0.2860045201)
         ->( -3.1837337893, -0.1036026998,  0.2860046615)
 Atom  11: ( -2.9516695770,  0.4622858940, -0.9537932377)
         ->( -2.9516696349,  0.4622857733, -0.9537932157)
 Atom   9: ( -1.5895189812,  0.5502774854, -1.3130368191)
         ->( -1.5895190489,  0.5502775067, -1.3130368299)
 Atom   7: ( -0.7029730131,  0.0413805844, -0.3353112964)
         ->( -0.7029730279,  0.0413807247, -0.3353112923)
 Atom  16: ( -1.2380290525,  0.9667134381, -2.2510351346)
         ->( -1.2380291633,  0.9667135568, -2.2510351110)
 Atom  14: (  3.7574083758, -0.8098711451, -1.5962361713)
         ->(  3.7574082396, -0.8098714749, -1.5962361575)
 Atom  15: ( -4.1232439007, -0.2822620676,  0.7902576633)
         ->( -4.1232438845, -0.2822623464,  0.7902576437)
 ----------------------------------------------------------------
             Standard Nuclear Orientation (Angstroms)
    I     Atom           X                Y                Z
 ----------------------------------------------------------------
    1      S       1.6592240076     0.5539722736     1.0596146265
    2      C       3.1837337893     0.1036026998     0.2860046615
    3      C       2.9516696349    -0.4622857733    -0.9537932157
    4      C       1.5895190489    -0.5502775067    -1.3130368299
    5      C       0.7029730279    -0.0413807247    -0.3353112923
    6      H       1.2380291633    -0.9667135568    -2.2510351110
    7      C      -0.7029730279     0.0413807247    -0.3353112923
    8      S      -1.6592240076    -0.5539722736     1.0596146265
    9      C      -1.5895190489     0.5502775067    -1.3130368299
   10      C      -3.1837337893    -0.1036026998     0.2860046615
   11      C      -2.9516696349     0.4622857733    -0.9537932157
   12      H      -3.7574082396     0.8098714749    -1.5962361575
   13      H       4.1232438845     0.2822623464     0.7902576437
   14      H       3.7574082396    -0.8098714749    -1.5962361575
   15      H      -4.1232438845    -0.2822623464     0.7902576437
   16      H      -1.2380291633     0.9667135568    -2.2510351110
 ----------------------------------------------------------------
 Molecular Point Group                 C2    NOp =  2
 Largest Abelian Subgroup              C2    NOp =  2
 Nuclear Repulsion Energy =   625.5305582229 hartrees
 There are       44 alpha and       43 beta electrons
 Requested basis set is 6-31++G(d,p)
 There are 76 shells and 234 basis functions

 Total QAlloc Memory Limit   1500 MB
 Mega-Array Size        98 MB
 MEM_STATIC part       100 MB
 A cutoff of  1.0D-11 yielded   2485 shell pairs
 There are     24515 function pairs
 
 -------------------------------------------------------
 OpenMP Integral Computing Module                       
 Release: version 1.0, May 2013, Q-Chem Inc. Pittsburgh 
 -------------------------------------------------------
 Integral Job Info:
 Integral job number is                      11
 Integral operator is                         1
 short-range coefficients                     0
 long-range coefficients              100000000
 Omega coefficients                           0
 if combine SR and LR in K                    0
 Integral screening is                        0
 Integral computing path is                   2
 max size of driver memory is            800000
 size of driver memory is                593474
 size of scratch memory is             15166112
 max col of scratch BK array               1296
 max len of scratch array in speh3          155
 max len of scratch index in speh4           18
 max int batch size is                      520
 min int batch size is                       52
 fixed nKL is                                52
 max L of basis functions is                  2
 order of int derivative is                   0
 number of shells is                         76
 number of basis is                         234
 number of cartesian basis is               234
 number of contracted shell pairs          2485
 number of primitive shell pairs           8017
 maxK2 (contraction) of shell pair           36
 max number of K2 of shell pair               1
 max number of CS2 of shell pair            258
 max number of PS2 of shell pair           1500
 mem total for path MDJ                   51378
 -------------------------------------------------------
 Smallest overlap matrix eigenvalue = 9.41E-07

 Q-Chem warning in module /project/projectdirs/jcesr/qchem/qc44/cnl_qc441/compile/cori/qc_src/stvman/mkSTV.C, line 257:

 Overlap eigenvalue is smaller than square root of threshold

 Linear dependence detected in AO basis
 Number of orthogonalized atomic orbitals = 233
 Maximum deviation from orthogonality = 2.558E-11

 Scale SEOQF with 1.000000e-01/1.000000e-01/1.000000e-01

 Standard Electronic Orientation quadrupole field applied
 Nucleus-field energy     =     0.0000000070 hartrees
 Guess from superposition of atomic densities
 Warning:  Energy on first SCF cycle will be non-variational
 An unrestricted hybrid HF-DFT SCF calculation will be
 performed using Pulay DIIS extrapolation
 Exchange:     0.2000 Hartree-Fock + 0.0800 Slater + 0.7200 B88
 Correlation:  0.1900 VWN1RPA + 0.8100 LYP
 Using SG-1 standard quadrature grid
 SCF converges when DIIS error is below 1.0E-08
 Inaccurate integrated density:
   Number of electrons =    87
   Numerical integral  =    86.000147202975
   Relative error      =    -1.1492560885 %
 ---------------------------------------
  Cycle       Energy         DIIS Error
 ---------------------------------------
    1   -1106.9796680720      4.29E-02
    2   -1087.0935199654      8.40E-01
    3   -1125.9715590561      4.29E-01
    4    -861.4536510626      1.08E+00
    5    -899.6611828232      1.15E+00
    6      27.9984337938      2.42E+01
    7    2442.8305690249      5.02E+01
    8     -24.7401295410      1.48E+01
    9     344.3691295871      2.15E+01
   10     517.5363532835      2.47E+01
   11    -706.9552888143      9.52E+00
   12   -1052.3041495999      2.76E-01
   13   -1092.5206069093      8.88E-02
   14   -1104.9358714280      2.28E-02
   15   -1104.7117774432      8.07E-03
   16   -1103.9102794135      1.31E-02
   17   -1104.0821772016      3.97E-03
   18   -1104.1998248917      2.94E-03
   19   -1104.4918771024      5.35E-03
   20   -1104.5353849744      5.09E-03
   21   -1104.5695449702      4.74E-03
   22   -1105.2547885552      5.98E-03
   23   -1104.6790302644      4.09E-03
   24   -1104.7152924841      3.72E-03
   25   -1104.7361829238      3.08E-03
   26   -1104.6748375962      2.10E-03
   27   -1104.7915897215      2.02E-03
   28   -1104.8112185556      1.46E-03
   29   -1104.8262666565      7.95E-04
   30   -1104.8318040614      3.07E-04
   31   -1104.8321881221      2.53E-04
   32   -1104.8326947050      1.50E-04
   33   -1104.8328931756      7.16E-05
   34   -1104.8329415519      1.27E-05
   35   -1104.8329473320      2.32E-06
   36   -1104.8329488661      6.73E-07
   37   -1104.8329465547      5.10E-07
   38   -1104.8329422936      6.39E-07
   39   -1104.8329384323      1.76E-07
   40   -1104.8329468415      1.70E-07
   41   -1104.8329497783      1.39E-07
   42   -1104.8329454235      3.22E-07
   43   -1104.8329384110      2.45E-07
   44   -1104.8329375834      2.49E-07
   45   -1104.8329417859      2.24E-07
   46   -1104.8329425503      1.92E-07
   47   -1104.8329413773      1.85E-07
   48   -1104.8329407303      4.90E-08
   49   -1104.8329422377      1.48E-08
   50   -1104.8329436771      4.42E-08
   51   -1104.8329444207      6.07E-08
   52   -1104.8329445257      4.67E-08
   53   -1104.8329445511      4.88E-08
   54   -1104.8329451952      4.02E-08
   55   -1104.8329450497      3.72E-08
   56   -1104.8329450430      3.92E-08
   57   -1104.8329450818      4.39E-08
   58   -1104.8329452214      2.41E-08
   59   -1104.8329449796      6.68E-08
   60   -1104.8329444445      1.65E-07
   61   -1104.8329445892      1.35E-07
   62   -1104.8329447561      1.06E-07
   63   -1104.8329450526      4.44E-08
   64   -1104.8329457993      5.40E-08
   65   -1104.8329458972      4.74E-08
   66   -1104.8329464687      6.96E-08
   67   -1104.8329464419      5.46E-08
   68   -1104.8329464163      4.87E-08
   69   -1104.8329458583      6.20E-08
   70   -1104.8329462027      4.82E-08
   71   -1104.8329469505      3.54E-08
   72   -1104.8329468261      4.69E-08
   73   -1104.8329456068      4.44E-08
   74   -1104.8329454429      7.23E-08
   75   -1104.8329457860      8.19E-08
   76   -1104.8329461956      8.76E-08
   77   -1104.8329461987      9.40E-08
   78   -1104.8329461782      9.59E-08
   79   -1104.8329455024      2.38E-07
   80   -1104.8329453584      2.70E-07
   81   -1104.8329445531      3.49E-07
   82   -1104.8329451599      6.14E-08
   83   -1104.8329439308      1.42E-07
   84   -1104.8329435917      1.62E-07
   85   -1104.8329443464      1.36E-07
   86   -1104.8329432974      1.58E-07
   87   -1104.8329427186      1.48E-08
   88   -1104.8329434122      9.12E-09 Convergence criterion met
 ---------------------------------------
 <S^2> = 0.7614
 SCF time:  CPU 43.63 s  wall 37.89 s
 SCF   energy in the final basis set = -1104.8329434122
 Total energy in the final basis set = -1104.8329434122
 
 --------------------------------------------------------------
             Orbital Energies (a.u.) and Symmetries
 --------------------------------------------------------------
 
 Alpha MOs, Unrestricted
 -- Occupied --                  
-88.748 -88.748 -10.061 -10.061 -10.056 -10.056 -10.048 -10.048
  1 B     1 A     2 A     2 B     3 B     3 A     4 A     4 B                  
-10.036 -10.036  -7.808  -7.808  -5.772  -5.772  -5.768  -5.768
  5 B     5 A     6 B     6 A     7 B     7 A     8 B     8 A                  
 -5.765  -5.765  -0.723  -0.701  -0.605  -0.578  -0.572  -0.536
  9 A     9 B    10 A    10 B    11 A    12 A    11 B    12 B                  
 -0.446  -0.410  -0.397  -0.370  -0.362  -0.314  -0.260  -0.252
 13 A    14 A    13 B    14 B    15 A    15 B    16 A    17 A                  
 -0.251  -0.241  -0.236  -0.209  -0.207  -0.191  -0.182  -0.109
 16 B    17 B    18 A    19 A    18 B    20 A    19 B    20 B                  
 -0.106  -0.104  -0.060   0.058
 21 A    21 B    22 A    22 B                                                  
 -- Virtual --                   
  0.094   0.097   0.109   0.114   0.122   0.129   0.138   0.150
 23 A    23 B    24 A    24 B    25 A    26 A    25 B    27 A                  
  0.154   0.157   0.168   0.176   0.177   0.177   0.185   0.190
 28 A    26 B    27 B    28 B    29 A    30 A    29 B    31 A                  
  0.199   0.204   0.211   0.215   0.215   0.220   0.229   0.230
 30 B    32 A    31 B    33 A    32 B    34 A    35 A    33 B                  
  0.233   0.235   0.243   0.244   0.248   0.256   0.263   0.264
 34 B    36 A    37 A    35 B    38 A    36 B    39 A    37 B                  
  0.274   0.276   0.280   0.293   0.294   0.296   0.302   0.304
 38 B    40 A    39 B    41 A    40 B    42 A    41 B    43 A                  
  0.315   0.327   0.328   0.338   0.340   0.345   0.359   0.364
 42 B    43 B    44 A    45 A    44 B    46 A    45 B    46 B                  
  0.386   0.391   0.393   0.395   0.407   0.440   0.447   0.453
 47 B    47 A    48 A    48 B    49 A    50 A    49 B    51 A                  
  0.454   0.463   0.486   0.488   0.512   0.541   0.564   0.598
 50 B    52 A    53 A    51 B    52 B    54 A    53 B    55 A                  
  0.614   0.653   0.671   0.672   0.699   0.711   0.714   0.756
 56 A    54 B    55 B    57 A    56 B    57 B    58 A    59 A                  
  0.758   0.780   0.804   0.811   0.821   0.831   0.845   0.858
 58 B    60 A    61 A    59 B    60 B    62 A    63 A    61 B                  
  0.869   0.874   0.900   0.904   0.905   0.911   0.930   0.947
 64 A    62 B    63 B    64 B    65 A    66 A    65 B    67 A                  
  0.974   0.985   1.003   1.040   1.053   1.100   1.101   1.102
 66 B    68 A    67 B    69 A    68 B    70 A    69 B    70 B                  
  1.108   1.115   1.115   1.122   1.135   1.143   1.158   1.188
 71 A    71 B    72 A    72 B    73 A    73 B    74 A    74 B                  
  1.200   1.222   1.230   1.246   1.254   1.263   1.271   1.318
 75 A    75 B    76 A    77 A    76 B    78 A    77 B    78 B                  
  1.324   1.344   1.381   1.425   1.482   1.507   1.510   1.515
 79 A    80 A    79 B    81 A    80 B    82 A    81 B    83 A                  
  1.521   1.546   1.602   1.634   1.660   1.701   1.739   1.841
 82 B    84 A    83 B    84 B    85 A    86 A    85 B    86 B                  
  1.843   1.916   1.983   2.005   2.046   2.049   2.059   2.085
 87 A    87 B    88 A    89 A    88 B    90 A    89 B    91 A                  
  2.094   2.104   2.169   2.171   2.211   2.214   2.277   2.295
 92 A    90 B    91 B    93 A    94 A    92 B    95 A    93 B                  
  2.317   2.350   2.362   2.403   2.405   2.461   2.515   2.517
 94 B    96 A    95 B    96 B    97 A    98 A    99 A    97 B                  
  2.579   2.597   2.616   2.622   2.640   2.665   2.674   2.695
 98 B   100 A    99 B   101 A   100 B   102 A   101 B   103 A                  
  2.736   2.740   2.763   2.808   2.843   2.863   2.938   2.942
104 A   102 B   105 A   103 B   104 B   106 A   105 B   107 A                  
  3.012   3.045   3.123   3.295   3.356   3.418   3.420   3.558
108 A   106 B   107 B   109 A   108 B   109 B   110 A   111 A                  
  3.578   3.864   3.890   4.114   4.150   4.436   4.454   4.467
110 B   112 A   111 B   113 A   112 B   114 A   113 B   115 A                  
  4.478   4.584   4.679   4.810   4.878
114 B   116 A   115 B   117 A   116 B                                          
 
 Beta MOs, Unrestricted
 -- Occupied --                  
-88.748 -88.748 -10.060 -10.059 -10.053 -10.053 -10.048 -10.048
  1 B     1 A     2 A     2 B     3 B     3 A     4 A     4 B                  
-10.034 -10.034  -7.807  -7.807  -5.771  -5.771  -5.768  -5.768
  5 B     5 A     6 B     6 A     7 B     7 A     8 B     8 A                  
 -5.763  -5.763  -0.719  -0.698  -0.600  -0.575  -0.569  -0.531
  9 A     9 B    10 A    10 B    11 A    12 A    11 B    12 B                  
 -0.439  -0.408  -0.394  -0.367  -0.360  -0.313  -0.258  -0.251
 13 A    14 A    13 B    14 B    15 A    15 B    16 A    17 A                  
 -0.248  -0.234  -0.233  -0.203  -0.200  -0.188  -0.179  -0.098
 16 B    17 B    18 A    18 B    19 A    20 A    19 B    20 B                  
 -0.097  -0.090  -0.043
 21 A    21 B    22 A                                                          
 -- Virtual --                   
  0.093   0.096   0.109   0.110   0.113   0.123   0.138   0.139
 23 A    22 B    24 A    23 B    24 B    25 A    25 B    26 A                  
  0.151   0.157   0.157   0.168   0.177   0.177   0.179   0.188
 27 A    26 B    28 A    27 B    28 B    29 A    30 A    29 B                  
  0.194   0.200   0.204   0.211   0.215   0.217   0.221   0.229
 31 A    30 B    32 A    31 B    33 A    32 B    34 A    35 A                  
  0.230   0.234   0.236   0.245   0.245   0.249   0.257   0.265
 33 B    34 B    36 A    37 A    35 B    38 A    36 B    39 A                  
  0.266   0.275   0.277   0.281   0.294   0.295   0.297   0.304
 37 B    38 B    40 A    39 B    41 A    40 B    42 A    41 B                  
  0.310   0.315   0.327   0.328   0.339   0.341   0.346   0.360
 43 A    42 B    43 B    44 A    45 A    44 B    46 A    45 B                  
  0.365   0.386   0.392   0.393   0.396   0.407   0.441   0.448
 46 B    47 B    47 A    48 A    48 B    49 A    50 A    49 B                  
  0.456   0.457   0.463   0.487   0.488   0.515   0.542   0.567
 50 B    51 A    52 A    53 A    51 B    52 B    54 A    53 B                  
  0.600   0.616   0.655   0.673   0.674   0.702   0.713   0.717
 55 A    56 A    54 B    55 B    57 A    56 B    57 B    58 A                  
  0.758   0.760   0.782   0.814   0.814   0.832   0.834   0.849
 59 A    58 B    60 A    61 A    59 B    60 B    62 A    63 A                  
  0.861   0.873   0.877   0.903   0.908   0.909   0.914   0.932
 61 B    64 A    62 B    63 B    65 A    64 B    66 A    65 B                  
  0.948   0.981   0.992   1.009   1.041   1.054   1.102   1.102
 67 A    66 B    68 A    67 B    69 A    68 B    69 B    70 A                  
  1.105   1.114   1.115   1.117   1.123   1.136   1.145   1.160
 70 B    71 A    72 A    71 B    72 B    73 A    73 B    74 A                  
  1.190   1.201   1.225   1.234   1.249   1.257   1.264   1.275
 74 B    75 A    75 B    76 A    77 A    76 B    78 A    77 B                  
  1.319   1.328   1.347   1.384   1.428   1.485   1.512   1.516
 78 B    79 A    80 A    79 B    81 A    80 B    82 A    81 B                  
  1.519   1.523   1.548   1.604   1.637   1.661   1.707   1.744
 83 A    82 B    84 A    83 B    84 B    85 A    86 A    85 B                  
  1.851   1.854   1.925   1.986   2.007   2.047   2.054   2.060
 86 B    87 A    87 B    88 A    89 A    88 B    90 A    89 B                  
  2.089   2.097   2.109   2.173   2.174   2.215   2.216   2.284
 91 A    92 A    90 B    91 B    93 A    92 B    94 A    95 A                  
  2.304   2.322   2.359   2.369   2.407   2.409   2.465   2.516
 93 B    94 B    96 A    95 B    96 B    97 A    98 A    99 A                  
  2.519   2.583   2.600   2.617   2.625   2.641   2.667   2.678
 97 B    98 B   100 A    99 B   101 A   100 B   102 A   101 B                  
  2.699   2.739   2.744   2.767   2.809   2.845   2.866   2.941
103 A   104 A   102 B   105 A   103 B   104 B   106 A   105 B                  
  2.944   3.014   3.047   3.125   3.296   3.357   3.418   3.420
107 A   108 A   106 B   107 B   109 A   108 B   109 B   110 A                  
  3.559   3.579   3.865   3.891   4.116   4.152   4.441   4.457
111 A   110 B   112 A   111 B   113 A   112 B   114 A   113 B                  
  4.468   4.480   4.589   4.685   4.813   4.881
115 A   114 B   116 A   115 B   117 A   116 B                                  
 --------------------------------------------------------------
 
          Ground-State Mulliken Net Atomic Charges

     Atom                 Charge (a.u.)    Spin (a.u.)
  --------------------------------------------------------
      1 S                    -0.220954       0.133578
      2 C                    -0.104076       0.225804
      3 C                    -0.320937      -0.065489
      4 C                     0.103730       0.194702
      5 C                    -0.269305       0.020982
      6 H                     0.094062      -0.000275
      7 C                    -0.269305       0.020982
      8 S                    -0.220954       0.133578
      9 C                     0.103730       0.194702
     10 C                    -0.104076       0.225803
     11 C                    -0.320937      -0.065489
     12 H                     0.073999       0.002720
     13 H                     0.143481      -0.012022
     14 H                     0.073999       0.002720
     15 H                     0.143481      -0.012022
     16 H                     0.094062      -0.000275
  --------------------------------------------------------
  Sum of atomic charges =    -1.000000
  Sum of spin   charges =     1.000000

 -----------------------------------------------------------------
                    Cartesian Multipole Moments
 -----------------------------------------------------------------
    Charge (ESU x 10^10)
                -4.8032
    Dipole Moment (Debye)
         X      -0.0000      Y      -0.0000      Z      -0.4513
       Tot       0.4513
    Quadrupole Moments (Debye-Ang)
        XX     -99.5494     XY      -0.5410     YY     -86.7320
        XZ       0.0000     YZ       0.0000     ZZ     -83.9734
    Octopole Moments (Debye-Ang^2)
       XXX       0.0000    XXY      -0.0000    XYY       0.0000
       YYY      -0.0000    XXZ       8.6982    XYZ       5.8453
       YYZ       2.5903    XZZ      -0.0000    YZZ      -0.0000
       ZZZ       1.0810
    Hexadecapole Moments (Debye-Ang^3)
      XXXX   -2477.0188   XXXY       2.2913   XXYY    -491.8362
      XYYY      11.2499   YYYY    -262.5197   XXXZ      -0.0000
      XXYZ       0.0000   XYYZ      -0.0000   YYYZ       0.0000
      XXZZ    -504.2711   XYZZ      -4.5170   YYZZ    -141.4873
      XZZZ       0.0000   YZZZ       0.0000   ZZZZ    -601.8960
 -----------------------------------------------------------------
 Calculating analytic gradient of the SCF energy
 Gradient of SCF Energy
            1           2           3           4           5           6
    1  -0.0051911   0.0013974  -0.0014457   0.0019071  -0.0083312   0.0009962
    2   0.0023141  -0.0008165  -0.0036015  -0.0069807   0.0038758   0.0017090
    3  -0.0023457  -0.0026842   0.0034830  -0.0004594   0.0037340  -0.0009895
            7           8           9          10          11          12
    1   0.0083312   0.0051911  -0.0019071  -0.0013974   0.0014457   0.0000495
    2  -0.0038758  -0.0023141   0.0069807   0.0008165   0.0036015  -0.0003817
    3   0.0037340  -0.0023457  -0.0004594  -0.0026842   0.0034830  -0.0000082
           13          14          15          16
    1  -0.0002059  -0.0000495   0.0002059  -0.0009962
    2   0.0025651   0.0003817  -0.0025651  -0.0017090
    3  -0.0007299  -0.0000082  -0.0007299  -0.0009895
 Max gradient component =       8.331E-03
 RMS gradient           =       3.149E-03
 Gradient time:  CPU 1.75 s  wall 1.76 s
 Geometry Optimization Parameters
   NAtoms,    NIC,     NZ,  NCons,   NDum,   NFix, NCnnct, MaxDiis
       16     111       0       1       0       0       0       0


** CONSTRAINED OPTIMIZATION IN DELOCALIZED INTERNAL COORDINATES **
   Searching for a Minimum

   Optimization Cycle:   1

                       Coordinates (Angstroms)
     ATOM                X               Y               Z
      1  S         1.6592240076    0.5539722736    1.0596146265
      2  C         3.1837337893    0.1036026998    0.2860046615
      3  C         2.9516696349   -0.4622857733   -0.9537932157
      4  C         1.5895190489   -0.5502775067   -1.3130368299
      5  C         0.7029730279   -0.0413807247   -0.3353112923
      6  H         1.2380291633   -0.9667135568   -2.2510351110
      7  C        -0.7029730279    0.0413807247   -0.3353112923
      8  S        -1.6592240076   -0.5539722736    1.0596146265
      9  C        -1.5895190489    0.5502775067   -1.3130368299
     10  C        -3.1837337893   -0.1036026998    0.2860046615
     11  C        -2.9516696349    0.4622857733   -0.9537932157
     12  H        -3.7574082396    0.8098714749   -1.5962361575
     13  H         4.1232438845    0.2822623464    0.7902576437
     14  H         3.7574082396   -0.8098714749   -1.5962361575
     15  H        -4.1232438845   -0.2822623464    0.7902576437
     16  H        -1.2380291633    0.9667135568   -2.2510351110
   Point Group: c2    Number of degrees of freedom:    22


   Energy is  -1104.832943412

              Constraints and their Current Values
                                        Value     Constraint
   Dihedral:        4   5   7   9      -50.000      -50.000

 Attempting to Generate Delocalized Internal Coordinates

 21 Hessian modes will be used to form the next step
  Hessian Eigenvalues:
     0.045000    0.045000    0.045000    0.045000    0.045000    0.045000
     0.160000    0.160000    0.160000    0.221184    0.237470    0.250000
     0.264210    0.283931    0.350974    0.354198    0.358566    0.414224
     0.425056    0.442595    0.471396

 Minimum Search - Taking Simple RFO Step
 Searching for Lamda that Minimizes Along All modes
 Value Taken    Lamda =  -0.00344439
 Step Taken.  Stepsize is  0.231417

                             Maximum     Tolerance    Cnvgd?
         Gradient           0.010654      0.000300      NO
         Displacement       0.182289      0.001200      NO
         Energy change     *********      0.000001      NO


 New Cartesian Coordinates Obtained by Inverse Iteration

 Displacement from previous Coordinates is:  0.408336
 ----------------------------------------------------------------
             Standard Nuclear Orientation (Angstroms)
    I     Atom           X                Y                Z
 ----------------------------------------------------------------
    1      S       1.6852453131     0.5167999082     1.0879837470
    2      C       3.2006803377     0.0807663204     0.2941667827
    3      C       2.9588863847    -0.4172819533    -0.9740433060
    4      C       1.5913418451    -0.5033985281    -1.3175817926
    5      C       0.7103903004    -0.0188216251    -0.3288040054
    6      H       1.2266791719    -0.9118927660    -2.2542511023
    7      C      -0.7103903004     0.0188216251    -0.3288040054
    8      S      -1.6852453131    -0.5167999082     1.0879837470
    9      C      -1.5913418451     0.5033985281    -1.3175817926
   10      C      -3.2006803377    -0.0807663204     0.2941667827
   11      C      -2.9588863847     0.4172819533    -0.9740433060
   12      H      -3.7572545365     0.7565829724    -1.6303529929
   13      H       4.1435232290     0.2024655173     0.8093469950
   14      H       3.7572545365    -0.7565829724    -1.6303529929
   15      H      -4.1435232290    -0.2024655173     0.8093469950
   16      H      -1.2266791719     0.9118927660    -2.2542511023
 ----------------------------------------------------------------
 Molecular Point Group                 C2    NOp =  2
 Largest Abelian Subgroup              C2    NOp =  2
 Nuclear Repulsion Energy =   623.7889988596 hartrees
 There are       44 alpha and       43 beta electrons
 Applying Cartesian multipole field
    Component          Value
    ---------          -----
     (2,0,0)        1.00000E-11
     (0,2,0)        2.00000E-11
     (0,0,2)       -3.00000E-11
 Nucleus-field energy     =     0.0000000067 hartrees
 Requested basis set is 6-31++G(d,p)
 There are 76 shells and 234 basis functions
 A cutoff of  1.0D-11 yielded   2481 shell pairs
 There are     24475 function pairs
 Smallest overlap matrix eigenvalue = 1.15E-06

 Q-Chem warning in module /project/projectdirs/jcesr/qchem/qc44/cnl_qc441/compile/cori/qc_src/stvman/mkSTV.C, line 257:

 Overlap eigenvalue is smaller than square root of threshold

 No. of orbitals has changed due to linear dependencies.  Generating new SCF guess.
 Guess from superposition of atomic densities
 Warning:  Energy on first SCF cycle will be non-variational
 An unrestricted hybrid HF-DFT SCF calculation will be
 performed using Pulay DIIS extrapolation
 Exchange:     0.2000 Hartree-Fock + 0.0800 Slater + 0.7200 B88
 Correlation:  0.1900 VWN1RPA + 0.8100 LYP
 Using SG-1 standard quadrature grid
 SCF converges when DIIS error is below 1.0E-08
 Geometry optimization detected.  Setting ReadMinima to 0
 Setting SaveMinima to 0
 Inaccurate integrated density:
   Number of electrons =    87
   Numerical integral  =    86.000079036227
   Relative error      =    -1.1493344411 %
 ---------------------------------------
  Cycle       Energy         DIIS Error
 ---------------------------------------
    1   -1106.9532652266      4.25E-02
    2   -1104.5872448817      5.41E-03
    3   -1104.0776204330      9.28E-03
    4   -1104.8167159510      1.37E-03
    5   -1104.8252421533      1.12E-03
    6   -1104.8351023084      1.68E-04
    7   -1104.8353672473      8.27E-05
    8   -1104.8354388072      2.45E-05
    9   -1104.8354538527      1.18E-05
   10   -1104.8354599685      4.65E-06
   11   -1104.8354628576      2.67E-06
   12   -1104.8354650547      1.21E-06
   13   -1104.8354657362      4.89E-07
   14   -1104.8354657943      2.75E-07
   15   -1104.8354657999      1.25E-07
   16   -1104.8354658012      4.17E-08
   17   -1104.8354658011      1.99E-08
   18   -1104.8354658007      9.56E-09 Convergence criterion met
 ---------------------------------------
 <S^2> = 0.7617
 SCF time:  CPU 11.82 s  wall 10.52 s
 SCF   energy in the final basis set = -1104.8354658007
 Total energy in the final basis set = -1104.8354658007
 
 --------------------------------------------------------------
             Orbital Energies (a.u.) and Symmetries
 --------------------------------------------------------------
 
 Alpha MOs, Unrestricted
 -- Occupied --                  
-88.749 -88.749 -10.064 -10.063 -10.057 -10.057 -10.048 -10.048
  1 B     1 A     2 A     2 B     3 B     3 A     4 B     4 A                  
-10.036 -10.036  -7.808  -7.808  -5.772  -5.772  -5.769  -5.769
  5 B     5 A     6 B     6 A     7 B     7 A     8 B     8 A                  
 -5.765  -5.765  -0.722  -0.702  -0.604  -0.579  -0.572  -0.536
  9 A     9 B    10 A    10 B    11 A    12 A    11 B    12 B                  
 -0.446  -0.410  -0.398  -0.370  -0.362  -0.315  -0.260  -0.252
 13 A    14 A    13 B    14 B    15 A    15 B    16 A    17 A                  
 -0.250  -0.240  -0.236  -0.209  -0.209  -0.191  -0.181  -0.111
 16 B    17 B    18 A    18 B    19 A    20 A    19 B    20 B                  
 -0.105  -0.104  -0.060   0.056
 21 A    21 B    22 A    22 B                                                  
 -- Virtual --                   
  0.094   0.096   0.109   0.114   0.123   0.131   0.138   0.150
 23 A    23 B    24 A    24 B    25 A    26 A    25 B    27 A                  
  0.152   0.156   0.168   0.175   0.175   0.177   0.181   0.192
 28 A    26 B    27 B    29 A    28 B    30 A    29 B    31 A                  
  0.196   0.205   0.208   0.212   0.216   0.221   0.228   0.229
 30 B    32 A    31 B    32 B    33 A    34 A    33 B    35 A                  
  0.231   0.234   0.243   0.244   0.248   0.257   0.260   0.266
 34 B    36 A    37 A    35 B    38 A    36 B    39 A    37 B                  
  0.273   0.275   0.279   0.288   0.293   0.298   0.299   0.302
 40 A    38 B    39 B    40 B    41 A    42 A    41 B    43 A                  
  0.307   0.325   0.326   0.335   0.336   0.344   0.349   0.364
 42 B    43 B    44 A    45 A    44 B    46 A    45 B    46 B                  
  0.371   0.388   0.391   0.396   0.406   0.440   0.446   0.450
 47 B    47 A    48 B    48 A    49 A    50 A    49 B    50 B                  
  0.453   0.462   0.462   0.487   0.493   0.512   0.540   0.581
 51 A    51 B    52 A    53 A    52 B    53 B    54 A    54 B                  
  0.596   0.614   0.651   0.670   0.672   0.707   0.710   0.714
 55 A    56 A    55 B    56 B    57 A    57 B    58 B    58 A                  
  0.756   0.762   0.776   0.804   0.811   0.821   0.827   0.845
 59 A    59 B    60 A    61 A    60 B    61 B    62 A    63 A                  
  0.857   0.869   0.874   0.895   0.902   0.903   0.904   0.936
 62 B    64 A    63 B    64 B    65 B    65 A    66 A    66 B                  
  0.947   0.972   0.983   1.002   1.039   1.052   1.097   1.100
 67 A    67 B    68 A    68 B    69 A    69 B    70 A    70 B                  
  1.102   1.110   1.116   1.118   1.135   1.144   1.155   1.162
 71 B    71 A    72 A    72 B    73 A    73 B    74 A    74 B                  
  1.191   1.195   1.228   1.229   1.246   1.253   1.262   1.268
 75 B    75 A    76 B    76 A    77 A    77 B    78 A    78 B                  
  1.322   1.342   1.369   1.397   1.421   1.480   1.505   1.511
 79 A    80 A    79 B    80 B    81 A    81 B    82 A    82 B                  
  1.518   1.520   1.551   1.597   1.629   1.652   1.700   1.741
 83 A    83 B    84 A    84 B    85 B    85 A    86 A    86 B                  
  1.839   1.844   1.891   1.975   2.013   2.046   2.050   2.061
 87 B    87 A    88 B    88 A    89 A    90 A    89 B    90 B                  
  2.087   2.097   2.108   2.164   2.168   2.207   2.218   2.273
 91 A    92 A    91 B    93 A    92 B    93 B    94 A    95 A                  
  2.296   2.320   2.335   2.364   2.398   2.405   2.460   2.515
 94 B    95 B    96 A    96 B    97 A    97 B    98 A    99 A                  
  2.518   2.578   2.599   2.609   2.626   2.640   2.670   2.670
 98 B    99 B   100 A   101 A   100 B   101 B   102 B   102 A                  
  2.692   2.734   2.745   2.760   2.811   2.837   2.865   2.937
103 A   104 A   103 B   105 A   104 B   105 B   106 A   107 A                  
  2.937   3.015   3.041   3.117   3.294   3.353   3.417   3.419
106 B   108 A   107 B   108 B   109 A   109 B   110 B   110 A                  
  3.556   3.576   3.862   3.889   4.110   4.149   4.434   4.465
111 A   111 B   112 A   112 B   113 A   113 B   114 A   115 A                  
  4.480   4.489   4.579   4.685   4.808   4.871
114 B   115 B   116 A   116 B   117 A   117 B                                  
 
 Beta MOs, Unrestricted
 -- Occupied --                  
-88.749 -88.749 -10.062 -10.061 -10.054 -10.054 -10.049 -10.049
  1 B     1 A     2 A     2 B     3 B     3 A     4 B     4 A                  
-10.034 -10.034  -7.808  -7.808  -5.772  -5.772  -5.769  -5.769
  5 B     5 A     6 B     6 A     7 B     7 A     8 B     8 A                  
 -5.764  -5.764  -0.718  -0.698  -0.598  -0.575  -0.568  -0.532
  9 A     9 B    10 A    10 B    11 A    12 A    11 B    12 B                  
 -0.439  -0.408  -0.394  -0.367  -0.360  -0.314  -0.258  -0.251
 13 A    14 A    13 B    14 B    15 A    15 B    16 A    17 A                  
 -0.248  -0.233  -0.232  -0.205  -0.200  -0.188  -0.178  -0.098
 16 B    18 A    17 B    18 B    19 A    20 A    19 B    20 B                  
 -0.097  -0.093  -0.043
 21 A    21 B    22 A                                                          
 -- Virtual --                   
  0.093   0.096   0.109   0.109   0.113   0.124   0.138   0.140
 23 A    22 B    23 B    24 A    24 B    25 A    25 B    26 A                  
  0.151   0.156   0.156   0.168   0.176   0.177   0.177   0.185
 27 A    26 B    28 A    27 B    28 B    29 A    30 A    29 B                  
  0.195   0.197   0.205   0.208   0.213   0.216   0.222   0.229
 31 A    30 B    32 A    31 B    32 B    33 A    34 A    33 B                  
  0.229   0.232   0.235   0.245   0.245   0.249   0.258   0.262
 35 A    34 B    36 A    37 A    35 B    38 A    36 B    39 A                  
  0.267   0.275   0.276   0.280   0.289   0.296   0.298   0.301
 37 B    40 A    38 B    39 B    40 B    41 A    42 A    41 B                  
  0.307   0.308   0.325   0.326   0.335   0.338   0.345   0.349
 43 A    42 B    43 B    44 A    45 A    44 B    46 A    45 B                  
  0.365   0.371   0.389   0.392   0.396   0.407   0.441   0.448
 46 B    47 B    47 A    48 B    48 A    49 A    50 A    49 B                  
  0.451   0.457   0.462   0.464   0.488   0.493   0.515   0.541
 50 B    51 A    52 A    51 B    53 A    52 B    53 B    54 A                  
  0.582   0.598   0.615   0.654   0.672   0.674   0.710   0.712
 54 B    55 A    56 A    55 B    56 B    57 A    57 B    58 B                  
  0.717   0.758   0.765   0.777   0.814   0.814   0.831   0.832
 58 A    59 A    59 B    60 A    61 A    60 B    62 A    61 B                  
  0.848   0.860   0.872   0.877   0.899   0.906   0.906   0.908
 63 A    62 B    64 A    63 B    64 B    65 B    65 A    66 A                  
  0.939   0.948   0.979   0.991   1.008   1.041   1.053   1.099
 66 B    67 A    67 B    68 A    68 B    69 A    69 B    70 A                  
  1.101   1.105   1.113   1.117   1.119   1.136   1.146   1.157
 70 B    71 B    71 A    72 A    72 B    73 A    73 B    74 A                  
  1.163   1.193   1.197   1.232   1.232   1.248   1.257   1.264
 74 B    75 B    75 A    76 B    76 A    77 A    77 B    78 A                  
  1.271   1.325   1.346   1.372   1.399   1.424   1.483   1.510
 78 B    79 A    80 A    79 B    80 B    81 A    81 B    82 A                  
  1.516   1.521   1.524   1.554   1.599   1.632   1.654   1.705
 82 B    83 A    83 B    84 A    84 B    85 B    85 A    86 A                  
  1.746   1.849   1.854   1.900   1.977   2.015   2.051   2.052
 86 B    87 B    87 A    88 B    88 A    89 A    90 A    89 B                  
  2.063   2.089   2.102   2.112   2.166   2.172   2.209   2.223
 90 B    91 A    92 A    91 B    93 A    92 B    93 B    94 A                  
  2.280   2.304   2.325   2.344   2.371   2.402   2.409   2.464
 95 A    94 B    95 B    96 A    96 B    97 A    97 B    98 A                  
  2.517   2.520   2.583   2.601   2.613   2.627   2.642   2.672
 99 A    98 B    99 B   100 A   101 A   100 B   101 B   102 A                  
  2.674   2.697   2.736   2.749   2.764   2.813   2.840   2.868
102 B   103 A   104 A   103 B   105 A   104 B   105 B   106 A                  
  2.939   2.940   3.017   3.043   3.118   3.295   3.354   3.417
107 A   106 B   108 A   107 B   108 B   109 A   109 B   110 B                  
  3.419   3.558   3.577   3.863   3.890   4.112   4.151   4.439
110 A   111 A   111 B   112 A   112 B   113 A   113 B   114 A                  
  4.466   4.483   4.492   4.584   4.690   4.810   4.874
115 A   114 B   115 B   116 A   116 B   117 A   117 B                          
 --------------------------------------------------------------
 
          Ground-State Mulliken Net Atomic Charges

     Atom                 Charge (a.u.)    Spin (a.u.)
  --------------------------------------------------------
      1 S                    -0.211986       0.128944
      2 C                    -0.165010       0.231619
      3 C                    -0.374201      -0.061853
      4 C                     0.068716       0.186209
      5 C                    -0.123272       0.024796
      6 H                     0.097980      -0.001652
      7 C                    -0.123277       0.024796
      8 S                    -0.211982       0.128942
      9 C                     0.068712       0.186210
     10 C                    -0.165013       0.231616
     11 C                    -0.374195      -0.061855
     12 H                     0.070436       0.002820
     13 H                     0.137341      -0.010885
     14 H                     0.070436       0.002821
     15 H                     0.137338      -0.010881
     16 H                     0.097977      -0.001649
  --------------------------------------------------------
  Sum of atomic charges =    -1.000000
  Sum of spin   charges =     1.000000

 -----------------------------------------------------------------
                    Cartesian Multipole Moments
 -----------------------------------------------------------------
    Charge (ESU x 10^10)
                -4.8032
    Dipole Moment (Debye)
         X       0.0000      Y      -0.0000      Z      -0.4812
       Tot       0.4812
    Quadrupole Moments (Debye-Ang)
        XX     -99.8689     XY      -1.2023     YY     -86.6550
        XZ       0.0000     YZ       0.0001     ZZ     -84.0521
    Octopole Moments (Debye-Ang^2)
       XXX       0.0003    XXY       0.0003    XYY       0.0001
       YYY      -0.0002    XXZ       8.5056    XYZ       5.2580
       YYZ       1.7034    XZZ      -0.0000    YZZ      -0.0002
       ZZZ      -0.9727
    Hexadecapole Moments (Debye-Ang^3)
      XXXX   -2507.3495   XXXY     -10.6196   XXYY    -497.0115
      XYYY       8.1289   YYYY    -242.8451   XXXZ       0.0002
      XXYZ       0.0007   XYYZ      -0.0002   YYYZ       0.0005
      XXZZ    -509.4444   XYZZ      -6.1726   YYZZ    -142.6622
      XZZZ       0.0010   YZZZ       0.0007   ZZZZ    -616.9455
 -----------------------------------------------------------------
 Calculating analytic gradient of the SCF energy
 Gradient of SCF Energy
            1           2           3           4           5           6
    1  -0.0009364   0.0014101  -0.0003083  -0.0000646   0.0011309   0.0002209
    2   0.0022187  -0.0013881  -0.0000840  -0.0071018   0.0063096   0.0010934
    3  -0.0016688  -0.0002035   0.0013001   0.0027493  -0.0013843  -0.0003814
            7           8           9          10          11          12
    1  -0.0011309   0.0009366   0.0000643  -0.0014102   0.0003085  -0.0001233
    2  -0.0063096  -0.0022187   0.0071017   0.0013881   0.0000842   0.0000176
    3  -0.0013842  -0.0016689   0.0027492  -0.0002034   0.0013000   0.0000267
           13          14          15          16
    1   0.0001165   0.0001233  -0.0001165  -0.0002209
    2   0.0014746  -0.0000176  -0.0014746  -0.0010934
    3  -0.0004380   0.0000266  -0.0004380  -0.0003814
 Max gradient component =       7.102E-03
 RMS gradient           =       2.228E-03
 Gradient time:  CPU 1.74 s  wall 1.75 s
 Geometry Optimization Parameters
   NAtoms,    NIC,     NZ,  NCons,   NDum,   NFix, NCnnct, MaxDiis
       16     111       0       1       0       0       0       0

 Cartesian Hessian Update
 Hessian Updated using BFGS Update


** CONSTRAINED OPTIMIZATION IN DELOCALIZED INTERNAL COORDINATES **
   Searching for a Minimum

   Optimization Cycle:   2

                       Coordinates (Angstroms)
     ATOM                X               Y               Z
      1  S         1.6852453131    0.5167999082    1.0879837470
      2  C         3.2006803377    0.0807663204    0.2941667827
      3  C         2.9588863847   -0.4172819533   -0.9740433060
      4  C         1.5913418451   -0.5033985281   -1.3175817926
      5  C         0.7103903004   -0.0188216251   -0.3288040054
      6  H         1.2266791719   -0.9118927660   -2.2542511023
      7  C        -0.7103903004    0.0188216251   -0.3288040054
      8  S        -1.6852453131   -0.5167999082    1.0879837470
      9  C        -1.5913418451    0.5033985281   -1.3175817926
     10  C        -3.2006803377   -0.0807663204    0.2941667827
     11  C        -2.9588863847    0.4172819533   -0.9740433060
     12  H        -3.7572545365    0.7565829724   -1.6303529929
     13  H         4.1435232290    0.2024655173    0.8093469950
     14  H         3.7572545365   -0.7565829724   -1.6303529929
     15  H        -4.1435232290   -0.2024655173    0.8093469950
     16  H        -1.2266791719    0.9118927660   -2.2542511023
   Point Group: c2    Number of degrees of freedom:    22


   Energy is  -1104.835465801

              Constraints and their Current Values
                                        Value     Constraint
   Dihedral:        4   5   7   9      -50.000      -50.000
 Hessian Updated using BFGS Update

 17 Hessian modes will be used to form the next step
  Hessian Eigenvalues:
     0.021905    0.047713    0.159934    0.160000    0.160267    0.219689
     0.238549    0.253865    0.269536    0.283964    0.351006    0.354190
     0.358580    0.412996    0.426199    0.470540    0.496827

 Minimum Search - Taking Simple RFO Step
 Searching for Lamda that Minimizes Along All modes
 Value Taken    Lamda =  -0.00201569
 Step Taken.  Stepsize is  0.286480

                             Maximum     Tolerance    Cnvgd?
         Gradient           0.005423      0.000300      NO
         Displacement       0.225579      0.001200      NO
         Energy change     -0.002522      0.000001      NO


 New Cartesian Coordinates Obtained by Inverse Iteration

 Displacement from previous Coordinates is:  0.472019
 ----------------------------------------------------------------
             Standard Nuclear Orientation (Angstroms)
    I     Atom           X                Y                Z
 ----------------------------------------------------------------
    1      S       1.6833834772     0.4615184380     1.1202625165
    2      C       3.1942517567     0.0563276558     0.3070054959
    3      C       2.9580118625    -0.3700633452    -0.9896083416
    4      C       1.5907952204    -0.4432432031    -1.3331140526
    5      C       0.7106231119     0.0105079239    -0.3322398679
    6      H       1.2215426836    -0.8412336884    -2.2730106438
    7      C      -0.7106231119    -0.0105079239    -0.3322398679
    8      S      -1.6833834772    -0.4615184380     1.1202625165
    9      C      -1.5907952204     0.4432432031    -1.3331140526
   10      C      -3.1942517567    -0.0563276558     0.3070054959
   11      C      -2.9580118625     0.3700633452    -0.9896083416
   12      H      -3.7545899511     0.6984670514    -1.6533508500
   13      H       4.1331442888     0.1090750291     0.8405200689
   14      H       3.7545899511    -0.6984670514    -1.6533508500
   15      H      -4.1331442888    -0.1090750291     0.8405200689
   16      H      -1.2215426836     0.8412336884    -2.2730106438
 ----------------------------------------------------------------
 Molecular Point Group                 C2    NOp =  2
 Largest Abelian Subgroup              C2    NOp =  2
 Nuclear Repulsion Energy =   624.0819596977 hartrees
 There are       44 alpha and       43 beta electrons
 Applying Cartesian multipole field
    Component          Value
    ---------          -----
     (2,0,0)        1.00000E-11
     (0,2,0)        2.00000E-11
     (0,0,2)       -3.00000E-11
 Nucleus-field energy     =     0.0000000060 hartrees
 Requested basis set is 6-31++G(d,p)
 There are 76 shells and 234 basis functions
 A cutoff of  1.0D-11 yielded   2483 shell pairs
 There are     24487 function pairs
 Smallest overlap matrix eigenvalue = 1.45E-06

 Q-Chem warning in module /project/projectdirs/jcesr/qchem/qc44/cnl_qc441/compile/cori/qc_src/stvman/mkSTV.C, line 257:

 Overlap eigenvalue is smaller than square root of threshold

 Guess MOs from SCF MO coefficient file
 Reading MOs from coefficient file
 Reading MOs from coefficient file
 An unrestricted hybrid HF-DFT SCF calculation will be
 performed using Pulay DIIS extrapolation
 Exchange:     0.2000 Hartree-Fock + 0.0800 Slater + 0.7200 B88
 Correlation:  0.1900 VWN1RPA + 0.8100 LYP
 Using SG-1 standard quadrature grid
 SCF converges when DIIS error is below 1.0E-08
 Geometry optimization detected.  Setting ReadMinima to 0
 Setting SaveMinima to 0
 ---------------------------------------
  Cycle       Energy         DIIS Error
 ---------------------------------------
    1   -1104.8217628886      2.38E-03
    2   -1104.8359625898      2.56E-04
    3   -1104.8350477784      4.31E-04
    4   -1104.8367029612      5.97E-05
    5   -1104.8367288341      1.91E-05
    6   -1104.8367302288      1.66E-05
    7   -1104.8367325347      3.86E-06
    8   -1104.8367327226      8.25E-07
    9   -1104.8367327540      4.31E-07
   10   -1104.8367327695      1.92E-07
   11   -1104.8367327761      8.66E-08
   12   -1104.8367327769      4.32E-08
   13   -1104.8367327770      1.52E-08
   14   -1104.8367327772      3.87E-09 Convergence criterion met
 ---------------------------------------
 <S^2> = 0.7623
 SCF time:  CPU 9.25 s  wall 8.22 s
 SCF   energy in the final basis set = -1104.8367327772
 Total energy in the final basis set = -1104.8367327772
 
 --------------------------------------------------------------
             Orbital Energies (a.u.) and Symmetries
 --------------------------------------------------------------
 
 Alpha MOs, Unrestricted
 -- Occupied --                  
-88.750 -88.750 -10.064 -10.064 -10.057 -10.057 -10.048 -10.048
  1 B     1 A     2 A     2 B     3 B     3 A     4 B     4 A                  
-10.035 -10.035  -7.809  -7.809  -5.773  -5.773  -5.769  -5.769
  5 B     5 A     6 B     6 A     7 B     7 A     8 B     8 A                  
 -5.766  -5.766  -0.722  -0.702  -0.604  -0.580  -0.572  -0.536
  9 A     9 B    10 A    10 B    11 A    12 A    11 B    12 B                  
 -0.445  -0.411  -0.397  -0.370  -0.362  -0.315  -0.260  -0.252
 13 A    14 A    13 B    14 B    15 A    15 B    16 A    17 A                  
 -0.249  -0.238  -0.236  -0.210  -0.209  -0.192  -0.181  -0.114
 16 B    17 B    18 A    18 B    19 A    20 A    19 B    20 B                  
 -0.105  -0.105  -0.058   0.054
 21 B    21 A    22 A    22 B                                                  
 -- Virtual --                   
  0.094   0.096   0.109   0.114   0.124   0.133   0.139   0.151
 23 A    23 B    24 A    24 B    25 A    26 A    25 B    27 A                  
  0.151   0.156   0.170   0.172   0.175   0.177   0.181   0.193
 28 A    26 B    27 B    29 A    28 B    30 A    29 B    31 A                  
  0.197   0.205   0.206   0.213   0.217   0.223   0.228   0.228
 30 B    31 B    32 A    32 B    33 A    34 A    33 B    35 A                  
  0.232   0.234   0.244   0.246   0.249   0.257   0.258   0.268
 34 B    36 A    37 A    35 B    38 A    39 A    36 B    37 B                  
  0.272   0.276   0.279   0.287   0.293   0.298   0.300   0.304
 40 A    38 B    39 B    40 B    41 A    41 B    42 A    43 A                  
  0.308   0.322   0.327   0.333   0.337   0.342   0.345   0.361
 42 B    44 A    43 B    45 A    44 B    46 A    45 B    46 B                  
  0.375   0.384   0.395   0.399   0.406   0.440   0.445   0.449
 47 B    47 A    48 B    48 A    49 A    50 A    49 B    50 B                  
  0.453   0.462   0.465   0.487   0.489   0.513   0.538   0.579
 51 A    52 A    51 B    53 A    52 B    53 B    54 A    54 B                  
  0.594   0.614   0.647   0.672   0.672   0.704   0.713   0.719
 55 A    56 A    55 B    57 A    56 B    57 B    58 A    58 B                  
  0.753   0.765   0.769   0.805   0.813   0.822   0.824   0.843
 59 A    59 B    60 A    61 A    60 B    61 B    62 A    63 A                  
  0.859   0.869   0.874   0.890   0.895   0.904   0.905   0.942
 62 B    64 A    63 B    64 B    65 A    65 B    66 A    66 B                  
  0.945   0.970   0.983   1.000   1.039   1.052   1.091   1.100
 67 A    67 B    68 A    68 B    69 A    69 B    70 A    70 B                  
  1.101   1.108   1.119   1.121   1.135   1.142   1.152   1.160
 71 B    71 A    72 A    72 B    73 A    73 B    74 A    74 B                  
  1.189   1.198   1.227   1.230   1.246   1.253   1.263   1.266
 75 A    75 B    76 A    76 B    77 A    77 B    78 A    78 B                  
  1.318   1.343   1.364   1.402   1.419   1.476   1.501   1.506
 79 A    80 A    79 B    80 B    81 A    81 B    82 A    82 B                  
  1.518   1.530   1.562   1.576   1.636   1.636   1.705   1.751
 83 A    83 B    84 A    84 B    85 A    85 B    86 A    86 B                  
  1.834   1.845   1.868   1.973   2.020   2.044   2.050   2.061
 87 B    87 A    88 B    88 A    89 A    90 A    89 B    90 B                  
  2.088   2.114   2.114   2.160   2.169   2.199   2.228   2.268
 91 A    92 A    91 B    93 A    92 B    93 B    94 A    95 A                  
  2.298   2.321   2.323   2.364   2.399   2.412   2.462   2.516
 94 B    96 A    95 B    96 B    97 A    97 B    98 A    99 A                  
  2.521   2.577   2.593   2.601   2.629   2.643   2.667   2.674
 98 B    99 B   100 A   101 A   100 B   101 B   102 B   102 A                  
  2.691   2.733   2.748   2.763   2.809   2.835   2.869   2.936
103 A   104 A   103 B   105 A   104 B   105 B   106 A   107 A                  
  2.940   3.018   3.041   3.111   3.294   3.352   3.416   3.417
106 B   108 A   107 B   108 B   109 A   109 B   110 B   110 A                  
  3.555   3.574   3.861   3.889   4.105   4.153   4.435   4.465
111 A   111 B   112 A   112 B   113 A   113 B   114 A   115 A                  
  4.483   4.487   4.577   4.685   4.807   4.869
114 B   115 B   116 A   116 B   117 A   117 B                                  
 
 Beta MOs, Unrestricted
 -- Occupied --                  
-88.749 -88.749 -10.062 -10.062 -10.053 -10.053 -10.049 -10.049
  1 B     1 A     2 A     2 B     3 B     3 A     4 B     4 A                  
-10.033 -10.033  -7.808  -7.808  -5.772  -5.772  -5.769  -5.769
  5 B     5 A     6 B     6 A     7 B     7 A     8 B     8 A                  
 -5.764  -5.764  -0.718  -0.698  -0.598  -0.576  -0.569  -0.532
  9 A     9 B    10 A    10 B    11 A    12 A    11 B    12 B                  
 -0.439  -0.408  -0.393  -0.367  -0.360  -0.314  -0.258  -0.251
 13 A    14 A    13 B    14 B    15 A    15 B    16 A    17 A                  
 -0.246  -0.233  -0.230  -0.207  -0.200  -0.190  -0.177  -0.099
 16 B    18 A    17 B    18 B    19 A    20 A    19 B    20 B                  
 -0.097  -0.096  -0.041
 21 A    21 B    22 A                                                          
 -- Virtual --                   
  0.093   0.096   0.107   0.109   0.114   0.124   0.139   0.142
 23 A    22 B    23 B    24 A    24 B    25 A    25 B    26 A                  
  0.151   0.156   0.156   0.170   0.174   0.176   0.177   0.184
 27 A    26 B    28 A    27 B    29 A    28 B    30 A    29 B                  
  0.197   0.199   0.205   0.206   0.214   0.217   0.224   0.228
 31 A    30 B    31 B    32 A    32 B    33 A    34 A    33 B                  
  0.229   0.233   0.234   0.246   0.247   0.250   0.259   0.259
 35 A    34 B    36 A    37 A    35 B    38 A    39 A    36 B                  
  0.269   0.273   0.277   0.281   0.288   0.296   0.300   0.302
 37 B    40 A    38 B    39 B    40 B    41 A    41 B    42 A                  
  0.305   0.308   0.323   0.328   0.333   0.339   0.343   0.345
 43 A    42 B    44 A    43 B    45 A    44 B    46 A    45 B                  
  0.362   0.375   0.384   0.395   0.400   0.406   0.441   0.446
 46 B    47 B    47 A    48 B    48 A    49 A    50 A    49 B                  
  0.451   0.456   0.462   0.466   0.487   0.489   0.516   0.538
 50 B    51 A    52 A    51 B    53 A    52 B    53 B    54 A                  
  0.581   0.596   0.615   0.649   0.674   0.675   0.706   0.715
 54 B    55 A    56 A    55 B    57 A    56 B    57 B    58 A                  
  0.721   0.755   0.767   0.770   0.815   0.816   0.828   0.833
 58 B    59 A    59 B    60 A    61 A    60 B    62 A    61 B                  
  0.846   0.861   0.872   0.876   0.895   0.898   0.906   0.909
 63 A    62 B    64 A    63 B    64 B    65 A    65 B    66 A                  
  0.945   0.947   0.976   0.990   1.006   1.040   1.054   1.094
 66 B    67 A    67 B    68 A    68 B    69 A    69 B    70 A                  
  1.101   1.105   1.110   1.121   1.122   1.137   1.144   1.155
 70 B    71 B    71 A    72 A    72 B    73 A    73 B    74 A                  
  1.161   1.191   1.200   1.230   1.233   1.247   1.257   1.265
 74 B    75 A    75 B    76 A    76 B    77 A    77 B    78 A                  
  1.269   1.321   1.346   1.367   1.403   1.422   1.480   1.505
 78 B    79 A    80 A    79 B    80 B    81 A    81 B    82 A                  
  1.509   1.521   1.535   1.565   1.579   1.638   1.639   1.710
 82 B    83 A    83 B    84 A    84 B    85 A    85 B    86 A                  
  1.756   1.842   1.855   1.877   1.975   2.022   2.049   2.051
 86 B    87 B    87 A    88 B    88 A    89 A    90 A    89 B                  
  2.062   2.089   2.119   2.119   2.163   2.173   2.201   2.231
 90 B    91 A    92 A    91 B    93 A    92 B    93 B    94 A                  
  2.276   2.306   2.327   2.331   2.370   2.403   2.416   2.466
 95 A    94 B    95 B    96 A    96 B    97 A    97 B    98 A                  
  2.518   2.522   2.582   2.596   2.604   2.631   2.644   2.671
 99 A    98 B    99 B   100 A   101 A   100 B   101 B   102 B                  
  2.676   2.696   2.735   2.753   2.767   2.811   2.838   2.872
102 A   103 A   104 A   103 B   105 A   104 B   105 B   106 A                  
  2.938   2.942   3.020   3.042   3.113   3.295   3.353   3.416
107 A   106 B   108 A   107 B   108 B   109 A   109 B   110 B                  
  3.418   3.556   3.575   3.862   3.890   4.107   4.155   4.440
110 A   111 A   111 B   112 A   112 B   113 A   113 B   114 A                  
  4.467   4.487   4.490   4.582   4.690   4.809   4.871
115 A   114 B   115 B   116 A   116 B   117 A   117 B                          
 --------------------------------------------------------------
 
          Ground-State Mulliken Net Atomic Charges

     Atom                 Charge (a.u.)    Spin (a.u.)
  --------------------------------------------------------
      1 S                    -0.214732       0.125974
      2 C                    -0.183318       0.235096
      3 C                    -0.359251      -0.063657
      4 C                     0.001902       0.185234
      5 C                    -0.053847       0.028004
      6 H                     0.100102      -0.002911
      7 C                    -0.053847       0.028003
      8 S                    -0.214732       0.125974
      9 C                     0.001902       0.185234
     10 C                    -0.183318       0.235096
     11 C                    -0.359251      -0.063657
     12 H                     0.070634       0.002931
     13 H                     0.138509      -0.010671
     14 H                     0.070634       0.002931
     15 H                     0.138509      -0.010671
     16 H                     0.100102      -0.002911
  --------------------------------------------------------
  Sum of atomic charges =    -1.000000
  Sum of spin   charges =     1.000000

 -----------------------------------------------------------------
                    Cartesian Multipole Moments
 -----------------------------------------------------------------
    Charge (ESU x 10^10)
                -4.8032
    Dipole Moment (Debye)
         X       0.0000      Y       0.0000      Z      -0.4708
       Tot       0.4708
    Quadrupole Moments (Debye-Ang)
        XX    -100.1102     XY      -1.9559     YY     -86.5530
        XZ       0.0000     YZ      -0.0000     ZZ     -84.0540
    Octopole Moments (Debye-Ang^2)
       XXX       0.0000    XXY       0.0000    XYY      -0.0000
       YYY      -0.0000    XXZ       8.1913    XYZ       4.6552
       YYZ       0.8661    XZZ      -0.0000    YZZ      -0.0000
       ZZZ      -2.5507
    Hexadecapole Moments (Debye-Ang^3)
      XXXX   -2510.3641   XXXY     -23.3282   XXYY    -495.0646
      XYYY       8.1981   YYYY    -220.5680   XXXZ       0.0000
      XXYZ      -0.0000   XYYZ      -0.0000   YYYZ       0.0000
      XXZZ    -509.0695   XYZZ      -6.9613   YYZZ    -144.6835
      XZZZ       0.0000   YZZZ      -0.0000   ZZZZ    -635.0529
 -----------------------------------------------------------------
 Calculating analytic gradient of the SCF energy
 Gradient of SCF Energy
            1           2           3           4           5           6
    1   0.0011631  -0.0008191   0.0003658  -0.0009379   0.0027290  -0.0001829
    2   0.0018513  -0.0013327   0.0020829  -0.0071538   0.0112219   0.0000996
    3   0.0004868   0.0008050  -0.0013482   0.0050258  -0.0047000  -0.0000857
            7           8           9          10          11          12
    1  -0.0027290  -0.0011631   0.0009379   0.0008191  -0.0003658   0.0000640
    2  -0.0112219  -0.0018513   0.0071538   0.0013327  -0.0020829   0.0004979
    3  -0.0047000   0.0004868   0.0050258   0.0008050  -0.0013481   0.0000089
           13          14          15          16
    1  -0.0000537  -0.0000639   0.0000538   0.0001829
    2   0.0002935  -0.0004979  -0.0002935  -0.0000996
    3  -0.0001927   0.0000089  -0.0001927  -0.0000857
 Max gradient component =       1.122E-02
 RMS gradient           =       3.212E-03
 Gradient time:  CPU 1.75 s  wall 1.75 s
 Geometry Optimization Parameters
   NAtoms,    NIC,     NZ,  NCons,   NDum,   NFix, NCnnct, MaxDiis
       16     111       0       1       0       0       0       0

 Cartesian Hessian Update
 Hessian Updated using BFGS Update


** CONSTRAINED OPTIMIZATION IN DELOCALIZED INTERNAL COORDINATES **
   Searching for a Minimum

   Optimization Cycle:   3

                       Coordinates (Angstroms)
     ATOM                X               Y               Z
      1  S         1.6833834772    0.4615184380    1.1202625165
      2  C         3.1942517567    0.0563276558    0.3070054959
      3  C         2.9580118625   -0.3700633452   -0.9896083416
      4  C         1.5907952204   -0.4432432031   -1.3331140526
      5  C         0.7106231119    0.0105079239   -0.3322398679
      6  H         1.2215426836   -0.8412336884   -2.2730106438
      7  C        -0.7106231119   -0.0105079239   -0.3322398679
      8  S        -1.6833834772   -0.4615184380    1.1202625165
      9  C        -1.5907952204    0.4432432031   -1.3331140526
     10  C        -3.1942517567   -0.0563276558    0.3070054959
     11  C        -2.9580118625    0.3700633452   -0.9896083416
     12  H        -3.7545899511    0.6984670514   -1.6533508500
     13  H         4.1331442888    0.1090750291    0.8405200689
     14  H         3.7545899511   -0.6984670514   -1.6533508500
     15  H        -4.1331442888   -0.1090750291    0.8405200689
     16  H        -1.2215426836    0.8412336884   -2.2730106438
   Point Group: c2    Number of degrees of freedom:    22


   Energy is  -1104.836732777

              Constraints and their Current Values
                                        Value     Constraint
   Dihedral:        4   5   7   9      -50.000      -50.000
 Hessian Updated using BFGS Update

 20 Hessian modes will be used to form the next step
  Hessian Eigenvalues:
     0.015116    0.045000    0.045000    0.045101    0.050445    0.159978
     0.160110    0.160425    0.222881    0.247563    0.256961    0.275342
     0.284081    0.351003    0.354249    0.358625    0.422682    0.426222
     0.470992    0.496728

 Minimum Search - Taking Simple RFO Step
 Searching for Lamda that Minimizes Along All modes
 Value Taken    Lamda =  -0.00051212
 Step Taken.  Stepsize is  0.161223

                             Maximum     Tolerance    Cnvgd?
         Gradient           0.003439      0.000300      NO
         Displacement       0.117893      0.001200      NO
         Energy change     -0.001267      0.000001      NO


 New Cartesian Coordinates Obtained by Inverse Iteration

 Displacement from previous Coordinates is:  0.273383
 ----------------------------------------------------------------
             Standard Nuclear Orientation (Angstroms)
    I     Atom           X                Y                Z
 ----------------------------------------------------------------
    1      S       1.6705818584     0.4223660616     1.1289232089
    2      C       3.1896283328     0.0431727624     0.3191774137
    3      C       2.9636488175    -0.3540589696    -0.9884091742
    4      C       1.5994873306    -0.4108925899    -1.3486236714
    5      C       0.7094631084     0.0252785867    -0.3458807405
    6      H       1.2378542733    -0.7983183176    -2.2957709122
    7      C      -0.7094631084    -0.0252785867    -0.3458807405
    8      S      -1.6705818584    -0.4223660616     1.1289232089
    9      C      -1.5994873306     0.4108925899    -1.3486236714
   10      C      -3.1896283328    -0.0431727624     0.3191774137
   11      C      -2.9636488175     0.3540589696    -0.9884091742
   12      H      -3.7657559875     0.6725682984    -1.6500006459
   13      H       4.1217644603     0.0640565690     0.8670488470
   14      H       3.7657559875    -0.6725682984    -1.6500006459
   15      H      -4.1217644603    -0.0640565690     0.8670488470
   16      H      -1.2378542733     0.7983183176    -2.2957709122
 ----------------------------------------------------------------
 Molecular Point Group                 C2    NOp =  2
 Largest Abelian Subgroup              C2    NOp =  2
 Nuclear Repulsion Energy =   624.6610950330 hartrees
 There are       44 alpha and       43 beta electrons
 Applying Cartesian multipole field
    Component          Value
    ---------          -----
     (2,0,0)        1.00000E-11
     (0,2,0)        2.00000E-11
     (0,0,2)       -3.00000E-11
 Nucleus-field energy     =     0.0000000057 hartrees
 Requested basis set is 6-31++G(d,p)
 There are 76 shells and 234 basis functions
 A cutoff of  1.0D-11 yielded   2483 shell pairs
 There are     24487 function pairs
 Smallest overlap matrix eigenvalue = 1.73E-06

 Q-Chem warning in module /project/projectdirs/jcesr/qchem/qc44/cnl_qc441/compile/cori/qc_src/stvman/mkSTV.C, line 257:

 Overlap eigenvalue is smaller than square root of threshold

 Guess MOs from SCF MO coefficient file
 Reading MOs from coefficient file
 Reading MOs from coefficient file
 An unrestricted hybrid HF-DFT SCF calculation will be
 performed using Pulay DIIS extrapolation
 Exchange:     0.2000 Hartree-Fock + 0.0800 Slater + 0.7200 B88
 Correlation:  0.1900 VWN1RPA + 0.8100 LYP
 Using SG-1 standard quadrature grid
 SCF converges when DIIS error is below 1.0E-08
 Geometry optimization detected.  Setting ReadMinima to 0
 Setting SaveMinima to 0
 ---------------------------------------
  Cycle       Energy         DIIS Error
 ---------------------------------------
    1   -1104.8275559426      1.19E-03
    2   -1104.8368149582      1.56E-04
    3   -1104.8364685126      2.64E-04
    4   -1104.8370583749      4.87E-05
    5   -1104.8370760936      1.73E-05
    6   -1104.8370780019      9.58E-06
    7   -1104.8370787697      1.54E-06
    8   -1104.8370788131      4.72E-07
    9   -1104.8370788249      2.62E-07
   10   -1104.8370788298      1.06E-07
   11   -1104.8370788310      4.94E-08
   12   -1104.8370788307      2.51E-08
   13   -1104.8370788306      6.83E-09 Convergence criterion met
 ---------------------------------------
 <S^2> = 0.7626
 SCF time:  CPU 8.64 s  wall 7.70 s
 SCF   energy in the final basis set = -1104.8370788306
 Total energy in the final basis set = -1104.8370788306
 
 --------------------------------------------------------------
             Orbital Energies (a.u.) and Symmetries
 --------------------------------------------------------------
 
 Alpha MOs, Unrestricted
 -- Occupied --                  
-88.750 -88.750 -10.064 -10.064 -10.056 -10.056 -10.048 -10.048
  1 B     1 A     2 A     2 B     3 B     3 A     4 B     4 A                  
-10.035 -10.035  -7.809  -7.809  -5.773  -5.773  -5.770  -5.769
  5 B     5 A     6 B     6 A     7 B     7 A     8 B     8 A                  
 -5.766  -5.766  -0.722  -0.702  -0.604  -0.580  -0.571  -0.536
  9 A     9 B    10 A    10 B    11 A    12 A    11 B    12 B                  
 -0.446  -0.411  -0.396  -0.369  -0.362  -0.315  -0.260  -0.252
 13 A    14 A    13 B    14 B    15 A    15 B    16 A    17 A                  
 -0.249  -0.238  -0.237  -0.210  -0.208  -0.193  -0.180  -0.116
 16 B    17 B    18 A    18 B    19 A    20 A    19 B    20 B                  
 -0.105  -0.104  -0.057   0.052
 21 B    21 A    22 A    22 B                                                  
 -- Virtual --                   
  0.094   0.096   0.109   0.114   0.124   0.134   0.139   0.150
 23 A    23 B    24 A    24 B    25 A    26 A    25 B    27 A                  
  0.152   0.156   0.171   0.171   0.175   0.177   0.181   0.194
 28 A    26 B    27 B    29 A    28 B    30 A    29 B    31 A                  
  0.199   0.204   0.206   0.213   0.217   0.224   0.228   0.228
 30 B    31 B    32 A    32 B    33 A    34 A    35 A    33 B                  
  0.232   0.234   0.244   0.247   0.249   0.256   0.260   0.270
 34 B    36 A    37 A    35 B    38 A    39 A    36 B    37 B                  
  0.271   0.276   0.280   0.286   0.292   0.299   0.300   0.306
 40 A    38 B    39 B    40 B    41 A    41 B    42 A    43 A                  
  0.309   0.321   0.329   0.331   0.338   0.341   0.344   0.359
 42 B    44 A    43 B    45 A    44 B    46 A    45 B    46 B                  
  0.377   0.381   0.397   0.400   0.406   0.439   0.443   0.449
 47 B    47 A    48 B    48 A    49 A    50 A    49 B    50 B                  
  0.452   0.461   0.467   0.486   0.487   0.513   0.536   0.577
 51 A    52 A    51 B    53 A    52 B    53 B    54 A    54 B                  
  0.593   0.613   0.644   0.673   0.674   0.703   0.711   0.724
 55 A    56 A    55 B    57 A    56 B    57 B    58 A    58 B                  
  0.749   0.766   0.769   0.805   0.814   0.822   0.823   0.841
 59 A    60 A    59 B    61 A    60 B    61 B    62 A    63 A                  
  0.860   0.869   0.874   0.887   0.892   0.905   0.905   0.944
 62 B    64 A    63 B    64 B    65 A    66 A    65 B    67 A                  
  0.946   0.967   0.982   0.999   1.038   1.053   1.088   1.102
 66 B    67 B    68 A    68 B    69 A    69 B    70 A    70 B                  
  1.102   1.106   1.121   1.123   1.134   1.139   1.153   1.157
 71 B    71 A    72 A    72 B    73 A    73 B    74 A    74 B                  
  1.186   1.204   1.225   1.229   1.246   1.255   1.263   1.264
 75 A    75 B    76 A    76 B    77 A    77 B    78 A    78 B                  
  1.315   1.341   1.361   1.398   1.419   1.481   1.497   1.501
 79 A    80 A    79 B    80 B    81 A    81 B    82 A    82 B                  
  1.517   1.534   1.564   1.566   1.626   1.640   1.710   1.761
 83 A    83 B    84 B    84 A    85 A    85 B    86 A    86 B                  
  1.826   1.847   1.862   1.974   2.021   2.042   2.049   2.060
 87 B    87 A    88 B    88 A    89 A    90 A    89 B    90 B                  
  2.087   2.116   2.124   2.159   2.167   2.194   2.228   2.265
 91 A    91 B    92 A    93 A    92 B    93 B    94 A    95 A                  
  2.298   2.313   2.321   2.362   2.401   2.417   2.459   2.517
 94 B    96 A    95 B    96 B    97 A    97 B    98 A    99 A                  
  2.522   2.576   2.587   2.600   2.629   2.644   2.669   2.673
 98 B    99 B   100 A   101 A   100 B   101 B   102 B   102 A                  
  2.692   2.732   2.749   2.766   2.807   2.835   2.869   2.935
103 A   104 A   103 B   105 A   104 B   105 B   106 A   107 A                  
  2.938   3.016   3.041   3.109   3.293   3.352   3.417   3.417
106 B   108 A   107 B   108 B   109 A   109 B   110 B   110 A                  
  3.554   3.572   3.859   3.888   4.102   4.157   4.434   4.464
111 A   111 B   112 A   112 B   113 A   113 B   114 A   115 A                  
  4.483   4.485   4.577   4.684   4.806   4.867
114 B   115 B   116 A   116 B   117 A   117 B                                  
 
 Beta MOs, Unrestricted
 -- Occupied --                  
-88.749 -88.749 -10.063 -10.062 -10.053 -10.053 -10.049 -10.049
  1 B     1 A     2 A     2 B     3 B     3 A     4 B     4 A                  
-10.033 -10.033  -7.808  -7.808  -5.772  -5.772  -5.769  -5.769
  5 B     5 A     6 B     6 A     7 B     7 A     8 B     8 A                  
 -5.764  -5.764  -0.718  -0.698  -0.599  -0.576  -0.568  -0.532
  9 A     9 B    10 A    10 B    11 A    12 A    11 B    12 B                  
 -0.439  -0.409  -0.393  -0.366  -0.360  -0.314  -0.258  -0.251
 13 A    14 A    13 B    14 B    15 A    15 B    16 A    17 A                  
 -0.246  -0.234  -0.230  -0.207  -0.199  -0.190  -0.176  -0.101
 16 B    18 A    17 B    18 B    19 A    20 A    19 B    20 B                  
 -0.096  -0.096  -0.039
 21 B    21 A    22 A                                                          
 -- Virtual --                   
  0.093   0.096   0.105   0.109   0.114   0.124   0.139   0.143
 23 A    22 B    23 B    24 A    24 B    25 A    25 B    26 A                  
  0.151   0.156   0.157   0.172   0.173   0.176   0.177   0.184
 27 A    26 B    28 A    27 B    29 A    28 B    30 A    29 B                  
  0.198   0.201   0.204   0.206   0.215   0.218   0.224   0.229
 31 A    30 B    31 B    32 A    32 B    33 A    34 A    33 B                  
  0.229   0.233   0.234   0.246   0.248   0.251   0.258   0.261
 35 A    34 B    36 A    37 A    35 B    38 A    39 A    36 B                  
  0.271   0.272   0.277   0.281   0.287   0.296   0.300   0.302
 37 B    40 A    38 B    39 B    40 B    41 A    41 B    42 A                  
  0.306   0.309   0.321   0.329   0.331   0.339   0.342   0.344
 43 A    42 B    44 A    43 B    45 A    44 B    46 A    45 B                  
  0.360   0.378   0.381   0.398   0.401   0.406   0.441   0.444
 46 B    47 B    47 A    48 B    48 A    49 A    50 A    49 B                  
  0.451   0.455   0.462   0.468   0.487   0.488   0.516   0.537
 50 B    51 A    52 A    51 B    53 A    52 B    53 B    54 A                  
  0.579   0.595   0.615   0.647   0.675   0.677   0.705   0.713
 54 B    55 A    56 A    55 B    57 A    56 B    57 B    58 A                  
  0.726   0.750   0.768   0.771   0.816   0.818   0.827   0.833
 58 B    59 A    60 A    59 B    61 A    60 B    62 A    61 B                  
  0.844   0.862   0.872   0.876   0.891   0.894   0.907   0.910
 63 A    62 B    64 A    63 B    64 B    65 A    65 B    66 A                  
  0.945   0.949   0.974   0.990   1.005   1.040   1.055   1.091
 67 A    66 B    67 B    68 A    68 B    69 A    69 B    70 A                  
  1.103   1.105   1.108   1.123   1.124   1.136   1.141   1.155
 70 B    71 B    71 A    72 B    72 A    73 A    73 B    74 A                  
  1.159   1.188   1.206   1.228   1.233   1.248   1.258   1.266
 74 B    75 A    75 B    76 A    76 B    77 A    77 B    78 A                  
  1.268   1.318   1.345   1.363   1.400   1.422   1.484   1.501
 78 B    79 A    80 A    79 B    80 B    81 A    81 B    82 A                  
  1.503   1.521   1.539   1.566   1.569   1.629   1.642   1.715
 82 B    83 A    83 B    84 B    84 A    85 A    85 B    86 A                  
  1.766   1.834   1.857   1.872   1.977   2.022   2.048   2.051
 86 B    87 B    87 A    88 B    88 A    89 A    90 A    89 B                  
  2.062   2.088   2.121   2.128   2.161   2.171   2.196   2.231
 90 B    91 A    91 B    92 A    93 A    92 B    93 B    94 A                  
  2.273   2.306   2.323   2.326   2.368   2.405   2.420   2.464
 95 A    94 B    96 A    95 B    96 B    97 A    97 B    98 A                  
  2.519   2.524   2.581   2.590   2.603   2.631   2.646   2.672
 99 A    98 B    99 B   100 A   101 A   100 B   101 B   102 B                  
  2.676   2.697   2.735   2.753   2.770   2.809   2.838   2.872
[...]
      4 C                    -0.069424       0.194655
      5 C                     0.014507       0.028881
      6 H                     0.097598      -0.005149
      7 C                     0.014507       0.028881
      8 S                    -0.238723       0.119637
      9 C                    -0.069424       0.194655
     10 C                    -0.185276       0.239490
     11 C                    -0.331995      -0.068772
     12 H                     0.070582       0.003270
     13 H                     0.142731      -0.012011
     14 H                     0.070582       0.003270
     15 H                     0.142731      -0.012011
     16 H                     0.097598      -0.005149
  --------------------------------------------------------
  Sum of atomic charges =    -1.000000
  Sum of spin   charges =     1.000000

 -----------------------------------------------------------------
                    Cartesian Multipole Moments
 -----------------------------------------------------------------
    Charge (ESU x 10^10)
                -4.8032
    Dipole Moment (Debye)
         X      -0.0000      Y      -0.0000      Z      -0.4163
       Tot       0.4163
    Quadrupole Moments (Debye-Ang)
        XX     -99.8897     XY      -1.8925     YY     -86.6254
        XZ       0.0000     YZ       0.0000     ZZ     -83.7922
    Octopole Moments (Debye-Ang^2)
       XXX      -0.0000    XXY       0.0000    XYY       0.0000
       YYY      -0.0000    XXZ       8.6624    XYZ       4.1679
       YYZ       0.9964    XZZ      -0.0000    YZZ      -0.0000
       ZZZ      -2.1610
    Hexadecapole Moments (Debye-Ang^3)
      XXXX   -2493.5337   XXXY     -14.1726   XXYY    -490.1293
      XYYY      21.2022   YYYY    -200.5091   XXXZ       0.0000
      XXYZ       0.0000   XYYZ      -0.0000   YYYZ       0.0000
      XXZZ    -504.2209   XYZZ      -3.0176   YYZZ    -146.8056
      XZZZ       0.0000   YZZZ       0.0000   ZZZZ    -644.1495
 -----------------------------------------------------------------
 Calculating analytic gradient of the SCF energy
 Gradient of SCF Energy
            1           2           3           4           5           6
    1   0.0000421  -0.0000116   0.0000237   0.0003122  -0.0007525  -0.0000024
    2   0.0000227   0.0000614  -0.0000438  -0.0074438   0.0165626   0.0000294
    3   0.0000062  -0.0000023  -0.0000070   0.0035064  -0.0034916  -0.0000127
            7           8           9          10          11          12
    1   0.0007525  -0.0000421  -0.0003122   0.0000116  -0.0000237  -0.0000013
    2  -0.0165626  -0.0000227   0.0074438  -0.0000614   0.0000438  -0.0000464
    3  -0.0034916   0.0000062   0.0035064  -0.0000023  -0.0000070  -0.0000137
           13          14          15          16
    1  -0.0000064   0.0000013   0.0000064   0.0000024
    2  -0.0000419   0.0000464   0.0000419  -0.0000294
    3   0.0000146  -0.0000137   0.0000146  -0.0000127
 Max gradient component =       1.656E-02
 RMS gradient           =       3.845E-03
 Gradient time:  CPU 1.82 s  wall 1.76 s
 Geometry Optimization Parameters
   NAtoms,    NIC,     NZ,  NCons,   NDum,   NFix, NCnnct, MaxDiis
       16     111       0       1       0       0       0       0

 Cartesian Hessian Update
 Hessian Updated using BFGS Update


** CONSTRAINED OPTIMIZATION IN DELOCALIZED INTERNAL COORDINATES **
   Searching for a Minimum

   Optimization Cycle:  10

                       Coordinates (Angstroms)
     ATOM                X               Y               Z
      1  S         1.6462622093    0.3842895389    1.1316425848
      2  C         3.1785714669    0.0185273527    0.3379181399
      3  C         2.9691962763   -0.3564393947   -0.9784762764
      4  C         1.6128129762   -0.3886591296   -1.3653545956
      5  C         0.7088057326    0.0344151621   -0.3651181415
      6  H         1.2675705524   -0.7394085627   -2.3325991099
      7  C        -0.7088057326   -0.0344151621   -0.3651181415
      8  S        -1.6462622093   -0.3842895389    1.1316425848
      9  C        -1.6128129762    0.3886591296   -1.3653545956
     10  C        -3.1785714669   -0.0185273527    0.3379181399
     11  C        -2.9691962763    0.3564393947   -0.9784762764
     12  H        -3.7816716975    0.6469221468   -1.6405990570
     13  H         4.1026394405    0.0357239625    0.8990507812
     14  H         3.7816716975   -0.6469221468   -1.6405990570
     15  H        -4.1026394405   -0.0357239625    0.8990507812
     16  H        -1.2675705524    0.7394085627   -2.3325991099
   Point Group: c2    Number of degrees of freedom:    22


   Energy is  -1104.837261139

              Constraints and their Current Values
                                        Value     Constraint
   Dihedral:        4   5   7   9      -50.000      -50.000
 Hessian Updated using BFGS Update

 21 Hessian modes will be used to form the next step
  Hessian Eigenvalues:
     0.007059    0.012785    0.023301    0.045065    0.046260    0.049528
     0.159630    0.160112    0.160299    0.222853    0.247957    0.257642
     0.270600    0.285997    0.351151    0.354253    0.358840    0.415881
     0.431662    0.470970    0.489634

 Minimum Search - Taking Simple RFO Step
 Searching for Lamda that Minimizes Along All modes
 Value Taken    Lamda =   0.00000000
 Step Taken.  Stepsize is  0.006257

                             Maximum     Tolerance    Cnvgd?
         Gradient           0.000082      0.000300     YES
         Displacement       0.003888      0.001200      NO
         Energy change     -0.000001      0.000001     YES

 Final energy is   -1104.83726113942     


 ******************************
 **  OPTIMIZATION CONVERGED  **
 ******************************

                       Coordinates (Angstroms)
     ATOM                X               Y               Z
      1  S         1.6462622093    0.3842895389    1.1316425848
      2  C         3.1785714669    0.0185273527    0.3379181399
      3  C         2.9691962763   -0.3564393947   -0.9784762764
      4  C         1.6128129762   -0.3886591296   -1.3653545956
      5  C         0.7088057326    0.0344151621   -0.3651181415
      6  H         1.2675705524   -0.7394085627   -2.3325991099
      7  C        -0.7088057326   -0.0344151621   -0.3651181415
      8  S        -1.6462622093   -0.3842895389    1.1316425848
      9  C        -1.6128129762    0.3886591296   -1.3653545956
     10  C        -3.1785714669   -0.0185273527    0.3379181399
     11  C        -2.9691962763    0.3564393947   -0.9784762764
     12  H        -3.7816716975    0.6469221468   -1.6405990570
     13  H         4.1026394405    0.0357239625    0.8990507812
     14  H         3.7816716975   -0.6469221468   -1.6405990570
     15  H        -4.1026394405   -0.0357239625    0.8990507812
     16  H        -1.2675705524    0.7394085627   -2.3325991099

Z-matrix Print:
$molecule
-1 2
S 
C  1 1.764016
H  2 1.081234 1 120.369286
C  2 1.384678 1 110.644347 3 -175.752529 0
H  4 1.087613 2 122.556579 1 178.531805 0
C  4 1.410847 2 114.346267 1 1.322797 0
H  6 1.085255 4 123.891355 2 174.707789 0
C  6 1.413044 4 114.463727 2 -3.164584 0
C  8 1.419281 6 128.644448 4 171.313313 0
C  9 1.413044 8 128.644448 6 49.999985 0
H  10 1.085255 9 121.609868 8 -6.612896 0
C  10 1.410847 9 114.463727 8 171.313313 0
H  12 1.087613 10 123.034879 9 179.641474 0
C  12 1.384678 10 114.346267 9 -3.164584 0
H  14 1.081234 12 128.823099 10 -173.972435 0
S  14 1.764016 12 110.644347 10 1.322797 0
$end

 
 --------------------------------------------------------------
             Orbital Energies (a.u.) and Symmetries
 --------------------------------------------------------------
 
 Alpha MOs, Unrestricted
 -- Occupied --                  
-88.749 -88.749 -10.064 -10.064 -10.056 -10.056 -10.048 -10.048
  1 B     1 A     2 A     2 B     3 B     3 A     4 B     4 A                  
-10.034 -10.034  -7.808  -7.808  -5.773  -5.773  -5.769  -5.769
  5 B     5 A     6 B     6 A     7 B     7 A     8 B     8 A                  
 -5.766  -5.766  -0.722  -0.701  -0.604  -0.580  -0.571  -0.536
  9 A     9 B    10 A    10 B    11 A    12 A    11 B    12 B                  
 -0.446  -0.412  -0.396  -0.369  -0.362  -0.315  -0.261  -0.252
 13 A    14 A    13 B    14 B    15 A    15 B    16 A    17 A                  
 -0.248  -0.239  -0.237  -0.209  -0.208  -0.194  -0.178  -0.118
 16 B    17 B    18 A    18 B    19 A    20 A    19 B    20 B                  
 -0.106  -0.104  -0.055   0.052
 21 B    21 A    22 A    22 B                                                  
 -- Virtual --                   
  0.094   0.097   0.109   0.114   0.124   0.135   0.140   0.150
 23 A    23 B    24 A    24 B    25 A    26 A    25 B    27 A                  
  0.154   0.157   0.170   0.171   0.175   0.177   0.181   0.195
 28 A    26 B    29 A    27 B    28 B    30 A    29 B    31 A                  
  0.201   0.203   0.206   0.214   0.217   0.224   0.228   0.230
 30 B    31 B    32 A    32 B    33 A    34 A    35 A    33 B                  
  0.233   0.234   0.244   0.247   0.249   0.255   0.261   0.271
 34 B    36 A    37 A    35 B    38 A    39 A    36 B    40 A                  
  0.272   0.277   0.280   0.285   0.292   0.300   0.300   0.307
 37 B    38 B    39 B    40 B    41 A    41 B    42 A    43 A                  
  0.311   0.321   0.330   0.330   0.338   0.340   0.344   0.358
 42 B    44 A    43 B    45 A    44 B    46 A    45 B    46 B                  
  0.379   0.379   0.399   0.400   0.406   0.439   0.440   0.449
 47 B    47 A    48 B    48 A    49 A    50 A    49 B    50 B                  
  0.450   0.461   0.469   0.486   0.487   0.513   0.536   0.575
 51 A    52 A    51 B    53 A    52 B    53 B    54 A    54 B                  
  0.593   0.614   0.642   0.674   0.676   0.703   0.708   0.727
 55 A    56 A    55 B    57 A    56 B    57 B    58 A    58 B                  
  0.745   0.765   0.772   0.806   0.815   0.823   0.823   0.840
 59 A    60 A    59 B    61 A    60 B    61 B    62 A    63 A                  
  0.860   0.869   0.874   0.885   0.891   0.905   0.908   0.942
 62 B    64 A    63 B    64 B    65 A    66 A    65 B    67 A                  
  0.951   0.964   0.984   0.998   1.038   1.055   1.087   1.103
 66 B    67 B    68 A    68 B    69 A    69 B    70 A    70 B                  
  1.105   1.108   1.121   1.123   1.132   1.134   1.155   1.155
 71 B    71 A    72 A    72 B    73 B    73 A    74 B    74 A                  
  1.186   1.210   1.222   1.229   1.248   1.258   1.265   1.266
 75 A    75 B    76 A    76 B    77 A    77 B    78 A    78 B                  
  1.315   1.341   1.359   1.394   1.416   1.490   1.496   1.499
 79 A    80 A    79 B    80 B    81 A    81 B    82 B    82 A                  
  1.513   1.530   1.559   1.561   1.634   1.642   1.710   1.773
 83 A    83 B    84 B    84 A    85 A    85 B    86 A    86 B                  
  1.815   1.846   1.861   1.976   2.017   2.042   2.049   2.063
 87 B    87 A    88 B    88 A    89 A    90 A    89 B    90 B                  
  2.084   2.116   2.130   2.162   2.162   2.194   2.225   2.266
 91 A    91 B    92 A    92 B    93 A    93 B    94 A    95 A                  
  2.296   2.307   2.313   2.365   2.403   2.422   2.452   2.516
 94 B    96 A    95 B    96 B    97 A    97 B    98 A    99 A                  
  2.523   2.579   2.595   2.599   2.629   2.643   2.669   2.671
 98 B    99 B   100 A   101 A   100 B   101 B   102 A   102 B                  
  2.692   2.733   2.746   2.770   2.805   2.837   2.867   2.934
103 A   104 A   103 B   105 A   104 B   105 B   106 A   106 B                  
  2.935   3.014   3.042   3.110   3.294   3.352   3.417   3.418
107 A   108 A   107 B   108 B   109 A   109 B   110 B   110 A                  
  3.554   3.573   3.860   3.888   4.100   4.161   4.431   4.464
111 A   111 B   112 A   112 B   113 A   113 B   114 A   115 A                  
  4.481   4.485   4.578   4.685   4.807   4.867
114 B   115 B   116 A   116 B   117 A   117 B                                  
 
 Beta MOs, Unrestricted
 -- Occupied --                  
-88.749 -88.749 -10.063 -10.062 -10.053 -10.053 -10.049 -10.049
  1 B     1 A     2 A     2 B     3 B     3 A     4 B     4 A                  
-10.033 -10.033  -7.808  -7.808  -5.772  -5.772  -5.769  -5.769
  5 B     5 A     6 B     6 A     7 B     7 A     8 B     8 A                  
 -5.764  -5.764  -0.719  -0.698  -0.599  -0.576  -0.568  -0.531
  9 A     9 B    10 A    10 B    11 A    12 A    11 B    12 B                  
 -0.439  -0.409  -0.392  -0.366  -0.360  -0.313  -0.259  -0.251
 13 A    14 A    13 B    14 B    15 A    15 B    16 A    17 A                  
 -0.246  -0.234  -0.230  -0.206  -0.199  -0.191  -0.175  -0.102
 16 B    18 A    17 B    18 B    19 A    20 A    19 B    20 B                  
 -0.097  -0.096  -0.037
 21 B    21 A    22 A                                                          
 -- Virtual --                   
  0.093   0.096   0.105   0.109   0.114   0.124   0.140   0.143
 23 A    22 B    23 B    24 A    24 B    25 A    25 B    26 A                  
  0.151   0.157   0.158   0.172   0.174   0.176   0.177   0.184
 27 A    26 B    28 A    29 A    27 B    28 B    30 A    29 B                  
  0.199   0.202   0.204   0.206   0.215   0.218   0.225   0.229
 31 A    30 B    31 B    32 A    32 B    33 A    34 A    35 A                  
  0.230   0.234   0.234   0.246   0.249   0.252   0.258   0.262
 33 B    34 B    36 A    37 A    35 B    38 A    39 A    36 B                  
  0.272   0.273   0.278   0.282   0.286   0.296   0.302   0.302
 40 A    37 B    38 B    39 B    40 B    41 A    41 B    42 A                  
  0.308   0.312   0.321   0.330   0.330   0.339   0.341   0.344
 43 A    42 B    44 A    43 B    45 A    44 B    46 A    45 B                  
  0.359   0.379   0.380   0.400   0.400   0.406   0.440   0.441
 46 B    47 A    47 B    48 B    48 A    49 A    50 A    49 B                  
  0.451   0.454   0.462   0.470   0.487   0.487   0.516   0.536
 50 B    51 A    52 A    51 B    53 A    52 B    53 B    54 A                  
  0.576   0.595   0.616   0.645   0.677   0.679   0.705   0.711
 54 B    55 A    56 A    55 B    57 A    56 B    57 B    58 A                  
  0.730   0.747   0.766   0.774   0.816   0.819   0.827   0.833
 58 B    59 A    60 A    59 B    61 A    60 B    62 A    61 B                  
  0.843   0.863   0.872   0.876   0.888   0.893   0.910   0.910
 63 A    62 B    64 A    63 B    64 B    65 A    66 A    65 B                  
  0.944   0.954   0.971   0.992   1.005   1.040   1.056   1.089
 67 A    66 B    67 B    68 A    68 B    69 A    69 B    70 A                  
  1.104   1.108   1.110   1.123   1.123   1.134   1.136   1.156
 70 B    71 B    71 A    72 B    72 A    73 B    73 A    74 B                  
  1.158   1.188   1.212   1.225   1.233   1.250   1.261   1.267
 74 A    75 A    75 B    76 A    76 B    77 A    77 B    78 A                  
  1.270   1.318   1.345   1.361   1.396   1.419   1.492   1.499
 78 B    79 A    80 A    79 B    80 B    81 A    81 B    82 B                  
  1.503   1.516   1.536   1.562   1.565   1.636   1.644   1.715
 82 A    83 A    83 B    84 B    84 A    85 A    85 B    86 A                  
  1.778   1.823   1.857   1.871   1.979   2.019   2.047   2.050
 86 B    87 B    87 A    88 B    88 A    89 A    90 A    89 B                  
  2.065   2.086   2.122   2.134   2.164   2.166   2.196   2.228
 90 B    91 A    91 B    92 A    93 A    92 B    93 B    94 A                  
  2.274   2.303   2.317   2.319   2.372   2.407   2.425   2.457
 95 A    94 B    96 A    95 B    96 B    97 A    97 B    98 A                  
  2.518   2.525   2.584   2.598   2.602   2.631   2.645   2.671
 99 A    98 B    99 B   100 A   101 A   100 B   101 B   102 A                  
  2.676   2.697   2.735   2.751   2.774   2.807   2.839   2.870
102 B   103 A   104 A   103 B   105 A   104 B   105 B   106 A                  
  2.937   2.937   3.017   3.044   3.112   3.295   3.353   3.417
106 B   107 A   108 A   107 B   108 B   109 A   109 B   110 B                  
  3.418   3.555   3.574   3.861   3.889   4.101   4.163   4.436
110 A   111 A   111 B   112 A   112 B   113 A   113 B   114 A                  
  4.466   4.485   4.488   4.584   4.690   4.810   4.870
115 A   114 B   115 B   116 A   116 B   117 A   117 B                          
 --------------------------------------------------------------
 
          Ground-State Mulliken Net Atomic Charges

     Atom                 Charge (a.u.)    Spin (a.u.)
  --------------------------------------------------------
      1 S                    -0.238723       0.119637
      2 C                    -0.185276       0.239490
      3 C                    -0.331995      -0.068772
      4 C                    -0.069424       0.194655
      5 C                     0.014507       0.028881
      6 H                     0.097598      -0.005149
      7 C                     0.014507       0.028881
      8 S                    -0.238723       0.119637
      9 C                    -0.069424       0.194655
     10 C                    -0.185276       0.239490
     11 C                    -0.331995      -0.068772
     12 H                     0.070582       0.003270
     13 H                     0.142731      -0.012011
     14 H                     0.070582       0.003270
     15 H                     0.142731      -0.012011
     16 H                     0.097598      -0.005149
  --------------------------------------------------------
  Sum of atomic charges =    -1.000000
  Sum of spin   charges =     1.000000

 -----------------------------------------------------------------
                    Cartesian Multipole Moments
 -----------------------------------------------------------------
    Charge (ESU x 10^10)
                -4.8032
    Dipole Moment (Debye)
         X      -0.0000      Y      -0.0000      Z      -0.4163
       Tot       0.4163
    Quadrupole Moments (Debye-Ang)
        XX     -99.8897     XY      -1.8925     YY     -86.6254
        XZ       0.0000     YZ       0.0000     ZZ     -83.7922
    Octopole Moments (Debye-Ang^2)
       XXX      -0.0000    XXY       0.0000    XYY       0.0000
       YYY      -0.0000    XXZ       8.6624    XYZ       4.1679
       YYZ       0.9964    XZZ      -0.0000    YZZ      -0.0000
       ZZZ      -2.1610
    Hexadecapole Moments (Debye-Ang^3)
      XXXX   -2493.5337   XXXY     -14.1726   XXYY    -490.1293
      XYYY      21.2022   YYYY    -200.5091   XXXZ       0.0000
      XXYZ       0.0000   XYYZ      -0.0000   YYYZ       0.0000
      XXZZ    -504.2209   XYZZ      -3.0176   YYZZ    -146.8056
      XZZZ       0.0000   YZZZ       0.0000   ZZZZ    -644.1495
 -----------------------------------------------------------------
Archival summary:
1\1\nid01047\OPT\ProcedureUnspecified\BasisUnspecified\286(1-,2)\TueSep623:52:022016TueSep623:52:022016\0\\#,OPT,ProcedureUnspecified,BasisUnspecified,\\-1,2\S\C,1,1.76402\H,2,1.08123,1,120.369\C,2,1.38468,1,110.644,3,-175.753,0\H,4,1.08761,2,122.557,1,178.532,0\C,4,1.41085,2,114.346,1,1.3228,0\H,6,1.08526,4,123.891,2,174.708,0\C,6,1.41304,4,114.464,2,-3.16458,0\C,8,1.41928,6,128.644,4,171.313,0\C,9,1.41304,8,128.644,6,50,0\H,10,1.08526,9,121.61,8,-6.6129,0\C,10,1.41085,9,114.464,8,171.313,0\H,12,1.08761,10,123.035,9,179.641,0\C,12,1.38468,10,114.346,9,-3.16458,0\H,14,1.08123,12,128.823,10,-173.972,0\S,14,1.76402,12,110.644,10,1.3228,0\\\@

 Total job time:  118.92s(wall), 132.36s(cpu) 
 Tue Sep  6 23:52:02 2016

        *************************************************************
        *                                                           *
        *  Thank you very much for using Q-Chem.  Have a nice day.  *
        *                                                           *
        *************************************************************


0 sent ACK to 0 
now end server 0 ... 
