srun -N 1 --ntasks-per-node 16 --nodelist nid01048 /global/project/projectdirs/jcesr/qchem/qc44/cnl_qc441/dist/exe/qcprog.cori.exe .pt_charged_dft_140.0.in.13575.qcin.1 /dev/shm/eg_qchem/qchem13575/
Process 1 of 16 is on nid01048 - thread support 0
Process 3 of 16 is on nid01048 - thread support 0
Process 4 of 16 is on nid01048 - thread support 0
Process 5 of 16 is on nid01048 - thread support 0
Process 6 of 16 is on nid01048 - thread support 0
Process 0 of 16 is on nid01048 - thread support 0
Process 2 of 16 is on nid01048 - thread support 0
Process 15 of 16 is on nid01048 - thread support 0
initial socket setup ...start
initial socket setup ...done 
now start server 0 ... 
nid01048 10.128.4
Q-Chem Developer Version! Running on 10.128.4.*
                  Welcome to Q-Chem
     A Quantum Leap Into The Future Of Chemistry


 Q-Chem 4.4, Q-Chem, Inc., Pleasanton, CA (2016)

 Y. Shao,  Z. Gan,  E. Epifanovsky,  A. T. B. Gilbert,  M. Wormit,  
 J. Kussmann,  A. W. Lange,  A. Behn,  J. Deng,  X. Feng,  D. Ghosh,  
 M. Goldey,  P. R. Horn,  L. D. Jacobson,  I. Kaliman,  F.Rob,  
 R. Z. Khaliullin,  T. Kus,  A. Landau,  J. Liu,  E. I. Proynov,  Y. M. Rhee,  
 R. M. Richard,  M. A. Rohrdanz,  R. P. Steele,  E. J. Sundstrom,  
 H. L. Woodcock III,  P. M. Zimmerman,  D. Zuev,  B. Albrecht,  E. Alguire,  
 B. Austin,  S. A. Baeppler,  G. J. O. Beran,  Y. A. Bernard,  E. Berquist,  
 K. Brandhorst,  K. B. Bravaya,  S. T. Brown,  D. Casanova,  C.-M. Chang,  
 Y. Chen,  S. H. Chien,  K. D. Closser,  M. P. Coons,  D. L. Crittenden,  
 S. Dasgupta,  M. Diedenhofen,  R. A. DiStasio Jr.,  H. Do,  A. D. Dutoi,  
 R. G. Edgar,  P.-T. Fang,  S. Fatehi,  Q. Feng,  L. Fusti-Molnar,  
 A. Ghysels,  A. Golubeva-Zadorozhnaya,  J. Gomes,  A. Gunina,  
 M. W. D. Hanson-Heine,  P. H. P. Harbach,  A. W. Hauser,  E. G. Hohenstein,  
 Z. C. Holden,  K. Hui,  T.-C. Jagau,  H. Ji,  B. Kaduk,  K. Khistyaev,  
 Jaehoon Kim,  Jihan Kim,  R. A. King,  P. Klunzinger,  D. Kosenkov,  
 T. Kowalczyk,  C. M. Krauter,  A. Kunitsa,  K. U. Lao,  A. Laurent,  
 K. V. Lawler,  D. Lefrancois,  S. Lehtola,  S. V. Levchenko,  C. Y. Lin,  
 Y.-S. Lin,  F. Liu,  E. Livshits,  R. C. Lochan,  A. Luenser,  P. Manohar,  
 S. F. Manzer,  S.-P. Mao,  Y. Mao,  N. Mardirossian,  A. V. Marenich,  
 L. A. Martinez-Martinez,  S. A. Maurer,  N. J. Mayhall,  J.-M. Mewes,  
 A. F. Morrison,  K. Nanda,  C. M. Oana,  R. Olivares-Amaya,  D. P. O'Neill,  
 J. A. Parkhill,  T. M. Perrine,  R. Peverati,  P. A. Pieniazek,  F. Plasser,  
 A. Prociuk,  D. R. Rehn,  E. Rosta,  N. J. Russ,  N. Sergueev,  
 S. M. Sharada,  S. Sharma,  D. W. Small,  A. Sodt,  T. Stauch,  T. Stein,  
 D. Stuck,  Y.-C. Su,  A. J. W. Thom,  T. Tsuchimochi,  L. Vogt,  O. Vydrov,  
 T. Wang,  M. A. Watson,  J. Wenzel,  A. White,  C. F. Williams,  
 V. Vanovschi,  S. Yeganeh,  S. R. Yost,  Z.-Q. You,  I. Y. Zhang,  X. Zhang,  
 Y. Zhao,  B. R. Brooks,  G. K. L. Chan,  D. M. Chipman,  C. J. Cramer,  
 W. A. Goddard III,  M. S. Gordon,  W. J. Hehre,  A. Klamt,  
 H. F. Schaefer III,  M. W. Schmidt,  C. D. Sherrill,  D. G. Truhlar,  
 A. Warshel,  X. Xu,  A. Aspuru-Guzik,  R. Baer,  A. T. Bell,  N. A. Besley,  
 J.-D. Chai,  A. Dreuw,  B. D. Dunietz,  T. R. Furlani,  S. R. Gwaltney,  
 C.-P. Hsu,  Y. Jung,  J. Kong,  D. S. Lambrecht,  W. Liang,  C. Ochsenfeld,  
 V. A. Rassolov,  L. V. Slipchenko,  J. E. Subotnik,  T. Van Voorhis,  
 J. M. Herbert,  A. I. Krylov,  P. M. W. Gill,  M. Head-Gordon

 Contributors to earlier versions of Q-Chem not listed above: 
 R. D. Adamson,  J. Baker,  E. F. C. Byrd,  A. K. Chakraborty,  C.-L. Cheng,  
 H. Dachsel,  R. J. Doerksen,  G. Hawkins,  A. Heyden,  S. Hirata,  
 G. Kedziora,  F. J. Keil,  C. Kelley,  P. P. Korambath,  W. Kurlancheek,  
 A. M. Lee,  M. S. Lee,  D. Liotard,  I. Lotan,  P. E. Maslen,  N. Nair,  
 D. Neuhauser,  R. Olson,  B. Peters,  J. Ritchie,  N. E. Schultz,  
 N. Shenvi,  A. C. Simmonett,  K. S. Thanthiriwatte,  Q. Wu,  W. Zhang

 Please cite Q-Chem as follows:
 Y. Shao et al., Mol. Phys. 113, 184-215 (2015)
 DOI: 10.1080/00268976.2014.952696

 Q-Chem 4.4.1 for Intel X86 EM64T Linux

 Parts of Q-Chem use Armadillo 5.200.1 (Boston Tea Smuggler).
 http://arma.sourceforge.net/

 Q-Chem begins on Tue Sep  6 23:00:36 2016  

Host: nid01047
0

     Scratch files written to /dev/shm/eg_qchem/qchem13575.0//
 Parallel job on  16  processors

Checking the input file for inconsistencies... 	...done.

--------------------------------------------------------------
User input:
--------------------------------------------------------------
$comment
<SCF Fix Strategy>{
    "current_method_id": 1, 
    "methods": [
        "increase_iter", 
        "diis_gdm", 
        "gwh", 
        "rca", 
        "gdm", 
        "core+gdm", 
        "fon"
    ], 
    "version": 2.0
}</SCF Fix Strategy>
$end


$molecule
 -1  2
 S           1.83794975       -1.27576249       -0.14871336
 C           3.23937819       -0.19806434       -0.14823333
 C           2.83626844        1.12431397       -0.14890172
 C           1.43724334        1.31134696       -0.14931220
 C           0.69606563        0.10654716       -0.14908151
 H           0.95807640        2.28459073       -0.14860036
 C          -0.69610330       -0.10652413       -0.14907621
 S          -1.78353289        0.92001368        0.84006303
 C          -1.47544530       -1.06198241       -0.84233845
 C          -3.21508250        0.03910846        0.29224292
 C          -2.86041003       -0.96681105       -0.58725451
 H          -3.59352589       -1.62843481       -1.04284049
 H           4.24016475       -0.60708034       -0.14954918
 H           3.54430111        1.94981573       -0.14910914
 H          -4.19634874        0.32059093        0.64826786
 H          -1.03278636       -1.79670581       -1.50644650
$end


$rem
         jobtype = opt
        exchange = b3lyp
           basis = 6-31++g**
  max_scf_cycles = 200
      mem_static = 100
       mem_total = 1500
   scf_algorithm = diis_gdm
       scf_guess = sad
$end


$opt
CONSTRAINT
tors 4 5 7 9 140.0
ENDCONSTRAINT
$end

--------------------------------------------------------------
 Atom   8: ( -1.8335828634,  1.1689893164,  0.3997344908)
         ->( -1.8335828340,  1.1689892972,  0.3997345519)
 Atom  10: ( -3.2342819502,  0.1303973178,  0.1085234094)
         ->( -3.2342819681,  0.1303974225,  0.1085231876)
 Atom  11: ( -2.8335012301, -1.1070439823, -0.3597673060)
         ->( -2.8335012508, -1.1070439767, -0.3597672269)
 Atom   9: ( -1.4368176471, -1.2588638445, -0.4957026067)
         ->( -1.4368176660, -1.2588638776, -0.4957025788)
 Atom   7: ( -0.6951863070, -0.1122471256, -0.1267309729)
         ->( -0.6951863151, -0.1122471414, -0.1267310233)
 Atom  16: ( -0.9595704818, -2.1668617773, -0.8486612601)
         ->( -0.9595705189, -2.1668617875, -0.8486612947)
 Atom  14: (  3.5415498474,  1.8961082897, -0.6022711555)
         ->(  3.5415497956,  1.8961082629, -0.6022714070)
 Atom  15: ( -4.2331288064,  0.4985800235,  0.2972454954)
         ->( -4.2331287949,  0.4985799987,  0.2972456441)
 ----------------------------------------------------------------
             Standard Nuclear Orientation (Angstroms)
    I     Atom           X                Y                Z
 ----------------------------------------------------------------
    1      S       1.8335828340    -1.1689892972     0.3997345519
    2      C       3.2342819681    -0.1303974225     0.1085231876
    3      C       2.8335012508     1.1070439767    -0.3597672269
    4      C       1.4368176660     1.2588638776    -0.4957025788
    5      C       0.6951863151     0.1122471414    -0.1267310233
    6      H       0.9595705189     2.1668617875    -0.8486612947
    7      C      -0.6951863151    -0.1122471414    -0.1267310233
    8      S      -1.8335828340     1.1689892972     0.3997345519
    9      C      -1.4368176660    -1.2588638776    -0.4957025788
   10      C      -3.2342819681     0.1303974225     0.1085231876
   11      C      -2.8335012508    -1.1070439767    -0.3597672269
   12      H      -3.5415497956    -1.8961082629    -0.6022714070
   13      H       4.2331287949    -0.4985799987     0.2972456441
   14      H       3.5415497956     1.8961082629    -0.6022714070
   15      H      -4.2331287949     0.4985799987     0.2972456441
   16      H      -0.9595705189    -2.1668617875    -0.8486612947
 ----------------------------------------------------------------
 Molecular Point Group                 C2    NOp =  2
 Largest Abelian Subgroup              C2    NOp =  2
 Nuclear Repulsion Energy =   623.1152017309 hartrees
 There are       44 alpha and       43 beta electrons
 Requested basis set is 6-31++G(d,p)
 There are 76 shells and 234 basis functions

 Total QAlloc Memory Limit   1500 MB
 Mega-Array Size        98 MB
 MEM_STATIC part       100 MB
 A cutoff of  1.0D-12 yielded   2524 shell pairs
 There are     24786 function pairs
 
 -------------------------------------------------------
 OpenMP Integral Computing Module                       
 Release: version 1.0, May 2013, Q-Chem Inc. Pittsburgh 
 -------------------------------------------------------
 Integral Job Info:
 Integral job number is                      11
 Integral operator is                         1
 short-range coefficients                     0
 long-range coefficients              100000000
 Omega coefficients                           0
 if combine SR and LR in K                    0
 Integral screening is                        0
 Integral computing path is                   2
 max size of driver memory is            800000
 size of driver memory is                593474
 size of scratch memory is             15166112
 max col of scratch BK array               1296
 max len of scratch array in speh3          155
 max len of scratch index in speh4           18
 max int batch size is                      520
 min int batch size is                       52
 fixed nKL is                                52
 max L of basis functions is                  2
 order of int derivative is                   0
 number of shells is                         76
 number of basis is                         234
 number of cartesian basis is               234
 number of contracted shell pairs          2524
 number of primitive shell pairs           8226
 maxK2 (contraction) of shell pair           36
 max number of K2 of shell pair               1
 max number of CS2 of shell pair            268
 max number of PS2 of shell pair           1524
 mem total for path MDJ                   51834
 -------------------------------------------------------
 Smallest overlap matrix eigenvalue = 9.05E-07
 Linear dependence detected in AO basis
 Number of orthogonalized atomic orbitals = 233
 Maximum deviation from orthogonality = 3.937E-11

 Scale SEOQF with 1.000000e-01/1.000000e-01/1.000000e-01

 Standard Electronic Orientation quadrupole field applied
 Nucleus-field energy     =     0.0000000206 hartrees
 Guess from superposition of atomic densities
 Warning:  Energy on first SCF cycle will be non-variational
 An unrestricted hybrid HF-DFT SCF calculation will be
 performed using Pulay DIIS + Geometric Direct Minimization
 Exchange:     0.2000 Hartree-Fock + 0.0800 Slater + 0.7200 B88
 Correlation:  0.1900 VWN1RPA + 0.8100 LYP
 Using SG-1 standard quadrature grid
 SCF converges when RMS gradient is below 1.0E-08
 Inaccurate integrated density:
   Number of electrons =    87
   Numerical integral  =    86.000169617159
   Relative error      =    -1.1492303251 %
 ---------------------------------------
  Cycle       Energy         DIIS Error
 ---------------------------------------
    1   -1106.9955118560      4.29E-02
    2    -967.7093278131      3.81E-01
    3    -936.0616251069      5.26E-01
    4    -924.9479165458      5.32E-01
    5   -1739.1377513751      9.83E-01
    6   -1470.6517513849      3.69E-01
    7   -1099.5931094503      1.74E-02
    8   -1072.5700674300      1.27E-01
    9   -1074.3056184870      1.16E-01
   10   -1015.8553757315      2.89E-01
   11   -1093.7116805145      1.06E-01
   12   -1097.1824808195      4.76E-02
   13   -1099.4957313759      2.84E-02
   14   -1101.7409253674      1.58E-02
   15   -1104.3721191936      9.68E-03 Done DIIS. Switching to GDM
   16   -1106.0929458550      1.64E-01 Descent step
   17   -1106.5667103757      1.70E-01 Normal BFGS step
   18   -1105.8917960937      9.90E-03 Line search: overstep
   19   -1106.5032666813      2.84E-02 Line search: overstep
   20   -1106.5604061947      3.21E-02 Line search: overstep
   21   -1106.5660789839      3.25E-02 Line search: overstep
   22   -1106.5666424067      3.25E-02 Line search: overstep
   23   -1106.5666975311      3.25E-02 Line search: overstep
   24   -1106.5667038042      3.25E-02 Line search: overstep
   25   -1106.5667067739      3.25E-02 Line search: overstep
   26   -1106.5667072591      3.25E-02 Line search: overstep
   27   -1106.5667047125      3.25E-02 Line search: overstep
   28   -1106.5667063586      3.25E-02 Line search: overstep
   29   -1106.5667052298      3.25E-02 Line search: overstep
   30   -1106.5667048038      3.25E-02 Line search: overstep
   31   -1106.5666252403      3.25E-02 Line search: overstep
   32   -1106.5666255954      3.25E-02 Line search: overstep
   33   -1106.5666254954      3.25E-02 Line search: overstep
   34   -1106.5666246442      3.25E-02 Line search: overstep
   35   -1106.5666264405      3.25E-02 Line search: overstep
   36   -1106.5666271666      3.25E-02 Line search: overstep
   37   -1106.5666262625      3.25E-02 Line search: overstep
   38   -1106.5666238114      3.25E-02 Line search: overstep
   39   -1106.5666268072      3.25E-02 Line search: overstep
   40   -1106.5666254367      3.25E-02 Line search: overstep
   41   -1106.5666259810      3.25E-02 Line search: overstep
   42   -1106.5666266251      3.25E-02 Line search: overstep
   43   -1106.5666248648      3.25E-02 Line search: overstep
   44   -1106.5666245674      3.25E-02 Line search: overstep
   45   -1106.5666243723      3.25E-02 Line search: overstep
   46   -1106.5666401972      3.25E-02 Line search: overstep
   47   -1106.5666433763      3.25E-02 Line search: overstep
   48   -1106.5666413938      3.25E-02 Line search: overstep
   49   -1106.5666422671      3.25E-02 Line search: overstep
   50   -1106.5666429133      3.25E-02 Line search: overstep
   51   -1106.5666423293      3.25E-02 Line search: overstep
   52   -1106.5666445307      3.25E-02 Line search: overstep
   53   -1106.5666420320      3.25E-02 Line search: overstep
   54   -1106.5666436547      3.25E-02 Line search: overstep
   55   -1106.5666414178      3.25E-02 Line search: overstep
   56   -1106.5666442576      3.25E-02 Line search: overstep
   57   -1106.5666439518      3.25E-02 Line search: overstep
   58   -1106.5666420237      3.25E-02 Line search: overstep
   59   -1106.5666425775      3.25E-02 Line search: overstep
   60   -1106.5666412643      3.25E-02 Line search: overstep
   61   -1106.5666254250      3.25E-02 Line search: overstep
   62   -1106.5666259267      3.25E-02 Line search: overstep
   63   -1106.5666257400      3.25E-02 Line search: overstep
   64   -1106.5666244470      3.25E-02 Line search: overstep
   65   -1106.5666250988      3.25E-02 Line search: overstep
   66   -1106.5666250175      3.25E-02 Line search: overstep
   67   -1106.5666265215      3.25E-02 Line search: overstep
   68   -1106.5666266893      3.25E-02 Line search: overstep
   69   -1106.5666252736      3.25E-02 Line search: overstep
   70   -1106.5666240881      3.25E-02 Line search: overstep
   71   -1106.5666254823      3.25E-02 Line search: overstep
   72   -1106.5666240500      3.25E-02 Line search: overstep
   73   -1106.5666257788      3.25E-02 Line search: overstep
   74   -1106.5666261863      3.25E-02 Line search: overstep
   75   -1106.5666271906      3.25E-02 Line search: overstep
   76   -1106.5666167928      3.25E-02 Line search: overstep
   77   -1106.5666183200      3.25E-02 Line search: overstep
   78   -1106.5666189556      3.25E-02 Line search: overstep
   79   -1106.5666214715      3.25E-02 Line search: overstep
   80   -1106.5666193361      3.25E-02 Line search: overstep
   81   -1106.5666182099      3.25E-02 Line search: overstep
   82   -1106.5666168995      3.25E-02 Line search: overstep
   83   -1106.5666155858      3.25E-02 Line search: overstep
   84   -1106.5666173486      3.25E-02 Line search: overstep
   85   -1106.5666175495      3.25E-02 Line search: overstep
   86   -1106.5666175362      3.25E-02 Line search: overstep
   87   -1106.5666182330      3.25E-02 Line search: overstep
   88   -1106.5666181407      3.25E-02 Line search: overstep
   89   -1106.5666178550      3.25E-02 Line search: overstep
   90   -1106.5666198372      3.25E-02 Line search: overstep
   91   -1106.5666522736      3.25E-02 Line search: overstep
   92   -1106.5666495598      3.25E-02 Line search: overstep
   93   -1106.5666501297      3.25E-02 Line search: overstep
   94   -1106.5666504412      3.25E-02 Line search: overstep
   95   -1106.5666512028      3.25E-02 Line search: overstep
   96   -1106.5666521259      3.25E-02 Line search: overstep
   97   -1106.5666521844      3.25E-02 Line search: overstep
   98   -1106.5666495709      3.25E-02 Line search: overstep
   99   -1106.5666504007      3.25E-02 Line search: overstep
  100   -1106.5666522701      3.25E-02 Line search: overstep
  101   -1106.5666507449      3.25E-02 Line search: overstep
  102   -1106.5666509382      3.25E-02 Line search: overstep
  103   -1106.5666531033      3.25E-02 Line search: overstep
  104   -1106.5666501326      3.25E-02 Line search: overstep
  105   -1106.5666514243      3.25E-02 Line search: overstep
  106   -1106.5666065556      3.25E-02 Line search: overstep
  107   -1106.5666046956      3.25E-02 Line search: overstep
  108   -1106.5666049066      3.25E-02 Line search: overstep
  109   -1106.5666050954      3.25E-02 Line search: overstep
  110   -1106.5666052380      3.25E-02 Line search: overstep
  111   -1106.5666038378      3.25E-02 Line search: overstep
  112   -1106.5666048420      3.25E-02 Line search: overstep
  113   -1106.5666045473      3.25E-02 Line search: overstep
  114   -1106.5666047423      3.25E-02 Line search: overstep
  115   -1106.5666049222      3.25E-02 Line search: overstep
  116   -1106.5666061408      3.25E-02 Line search: overstep
  117   -1106.5666039600      3.25E-02 Line search: overstep
  118   -1106.5666043296      3.25E-02 Line search: overstep
  119   -1106.5666063476      3.25E-02 Line search: overstep
  120   -1106.5666047987      3.25E-02 Line search: overstep
  121   -1106.5666328291      3.25E-02 Line search: overstep
  122   -1106.5666332696      3.25E-02 Line search: overstep
  123   -1106.5666339678      3.25E-02 Line search: overstep
  124   -1106.5666348376      3.25E-02 Line search: overstep
  125   -1106.5666334420      3.25E-02 Line search: overstep
  126   -1106.5666322451      3.25E-02 Line search: overstep
  127   -1106.5666360561      3.25E-02 Line search: overstep
  128   -1106.5666333771      3.25E-02 Line search: overstep
  129   -1106.5666350890      3.25E-02 Line search: overstep
  130   -1106.5666338323      3.25E-02 Line search: overstep
  131   -1106.5666333639      3.25E-02 Line search: overstep
  132   -1106.5666349639      3.25E-02 Line search: overstep
  133   -1106.5666335545      3.25E-02 Line search: overstep
  134   -1106.5666330235      3.25E-02 Line search: overstep
  135   -1106.5666316922      3.25E-02 Line search: overstep
  136   -1106.5666240826      3.25E-02 Line search: overstep
  137   -1106.5666259998      3.25E-02 Line search: overstep
  138   -1106.5666223911      3.25E-02 Line search: overstep
  139   -1106.5666255065      3.25E-02 Line search: overstep
  140   -1106.5666267751      3.25E-02 Line search: overstep
  141   -1106.5666244448      3.25E-02 Line search: overstep
  142   -1106.5666247760      3.25E-02 Line search: overstep
  143   -1106.5666249116      3.25E-02 Line search: overstep
  144   -1106.5666257063      3.25E-02 Line search: overstep
  145   -1106.5666238555      3.25E-02 Line search: overstep
  146   -1106.5666252623      3.25E-02 Line search: overstep
  147   -1106.5666232446      3.25E-02 Line search: overstep
  148   -1106.5666234636      3.25E-02 Line search: overstep
  149   -1106.5666253749      3.25E-02 Line search: overstep
  150   -1106.5666258240      3.25E-02 Line search: overstep
  151   -1106.5666153082      3.25E-02 Line search: overstep
  152   -1106.5666172992      3.25E-02 Line search: overstep
  153   -1106.5666175323      3.25E-02 Line search: overstep
  154   -1106.5666151131      3.25E-02 Line search: overstep
  155   -1106.5666152383      3.25E-02 Line search: overstep
  156   -1106.5666168261      3.25E-02 Line search: overstep
  157   -1106.5666158253      3.25E-02 Line search: overstep
  158   -1106.5666164446      3.25E-02 Line search: overstep
  159   -1106.5666154342      3.25E-02 Line search: overstep
  160   -1106.5666154386      3.25E-02 Line search: overstep
  161   -1106.5666154708      3.25E-02 Line search: overstep
  162   -1106.5666151017      3.25E-02 Line search: overstep
  163   -1106.5666146020      3.25E-02 Line search: overstep
  164   -1106.5666157426      3.25E-02 Line search: overstep
  165   -1106.5666153724      3.25E-02 Line search: overstep
  166   -1106.5666459457      3.25E-02 Line search: overstep
  167   -1106.5666454245      3.25E-02 Line search: overstep
  168   -1106.5666461729      3.25E-02 Line search: overstep
  169   -1106.5666468065      3.25E-02 Line search: overstep
  170   -1106.5666462571      3.25E-02 Line search: overstep
  171   -1106.5666449937      3.25E-02 Line search: overstep
  172               -nan           NAN Convergence criterion met
 ---------------------------------------
 <S^2> = nan
 SCF time:  CPU 43.27 s  wall 36.73 s
 SCF   energy in the final basis set = -nan
 Total energy in the final basis set = -nan
 
 --------------------------------------------------------------
             Orbital Energies (a.u.) and Symmetries
 --------------------------------------------------------------
 Warning : Irrep of orbital(   1) could not be determined
 Warning : Irrep of orbital(   2) could not be determined
 Warning : Irrep of orbital(   3) could not be determined
 Warning : Irrep of orbital(   4) could not be determined
 Warning : Irrep of orbital(   5) could not be determined
 Warning : Irrep of orbital(   6) could not be determined
 Warning : Irrep of orbital(   7) could not be determined
 Warning : Irrep of orbital(   8) could not be determined
 Warning : Irrep of orbital(   9) could not be determined
 Warning : Irrep of orbital(  10) could not be determined
 Warning : Irrep of orbital(  11) could not be determined
 Warning : Irrep of orbital(  12) could not be determined
 Warning : Irrep of orbital(  13) could not be determined
 Warning : Irrep of orbital(  14) could not be determined
 Warning : Irrep of orbital(  15) could not be determined
 Warning : Irrep of orbital(  16) could not be determined
 Warning : Irrep of orbital(  17) could not be determined
 Warning : Irrep of orbital(  18) could not be determined
 Warning : Irrep of orbital(  19) could not be determined
 Warning : Irrep of orbital(  20) could not be determined
 Warning : Irrep of orbital(  21) could not be determined
 Warning : Irrep of orbital(  22) could not be determined
 Warning : Irrep of orbital(  23) could not be determined
 Warning : Irrep of orbital(  24) could not be determined
 Warning : Irrep of orbital(  25) could not be determined
 Warning : Irrep of orbital(  26) could not be determined
 Warning : Irrep of orbital(  27) could not be determined
 Warning : Irrep of orbital(  28) could not be determined
 Warning : Irrep of orbital(  29) could not be determined
 Warning : Irrep of orbital(  30) could not be determined
 Warning : Irrep of orbital(  31) could not be determined
 Warning : Irrep of orbital(  32) could not be determined
 Warning : Irrep of orbital(  33) could not be determined
 Warning : Irrep of orbital(  34) could not be determined
 Warning : Irrep of orbital(  35) could not be determined
 Warning : Irrep of orbital(  36) could not be determined
 Warning : Irrep of orbital(  37) could not be determined
 Warning : Irrep of orbital(  38) could not be determined
 Warning : Irrep of orbital(  39) could not be determined
 Warning : Irrep of orbital(  40) could not be determined
 Warning : Irrep of orbital(  41) could not be determined
 Warning : Irrep of orbital(  42) could not be determined
 Warning : Irrep of orbital(  43) could not be determined
 Warning : Irrep of orbital(  44) could not be determined
 Warning : Irrep of orbital(  45) could not be determined
 Warning : Irrep of orbital(  46) could not be determined
 Warning : Irrep of orbital(  47) could not be determined
 Warning : Irrep of orbital(  48) could not be determined
 Warning : Irrep of orbital(  49) could not be determined
 Warning : Irrep of orbital(  50) could not be determined
 Warning : Irrep of orbital(  51) could not be determined
 Warning : Irrep of orbital(  52) could not be determined
 Warning : Irrep of orbital(  53) could not be determined
 Warning : Irrep of orbital(  54) could not be determined
 Warning : Irrep of orbital(  55) could not be determined
 Warning : Irrep of orbital(  56) could not be determined
 Warning : Irrep of orbital(  57) could not be determined
 Warning : Irrep of orbital(  58) could not be determined
 Warning : Irrep of orbital(  59) could not be determined
 Warning : Irrep of orbital(  60) could not be determined
 Warning : Irrep of orbital(  61) could not be determined
 Warning : Irrep of orbital(  62) could not be determined
 Warning : Irrep of orbital(  63) could not be determined
 Warning : Irrep of orbital(  64) could not be determined
 Warning : Irrep of orbital(  65) could not be determined
 Warning : Irrep of orbital(  66) could not be determined
 Warning : Irrep of orbital(  67) could not be determined
 Warning : Irrep of orbital(  68) could not be determined
 Warning : Irrep of orbital(  69) could not be determined
 Warning : Irrep of orbital(  70) could not be determined
 Warning : Irrep of orbital(  71) could not be determined
 Warning : Irrep of orbital(  72) could not be determined
 Warning : Irrep of orbital(  73) could not be determined
 Warning : Irrep of orbital(  74) could not be determined
 Warning : Irrep of orbital(  75) could not be determined
 Warning : Irrep of orbital(  76) could not be determined
 Warning : Irrep of orbital(  77) could not be determined
 Warning : Irrep of orbital(  78) could not be determined
 Warning : Irrep of orbital(  79) could not be determined
 Warning : Irrep of orbital(  80) could not be determined
 Warning : Irrep of orbital(  81) could not be determined
 Warning : Irrep of orbital(  82) could not be determined
 Warning : Irrep of orbital(  83) could not be determined
 Warning : Irrep of orbital(  84) could not be determined
 Warning : Irrep of orbital(  85) could not be determined
 Warning : Irrep of orbital(  86) could not be determined
 Warning : Irrep of orbital(  87) could not be determined
 Warning : Irrep of orbital(  88) could not be determined
 Warning : Irrep of orbital(  89) could not be determined
 Warning : Irrep of orbital(  90) could not be determined
 Warning : Irrep of orbital(  91) could not be determined
 Warning : Irrep of orbital(  92) could not be determined
 Warning : Irrep of orbital(  93) could not be determined
 Warning : Irrep of orbital(  94) could not be determined
 Warning : Irrep of orbital(  95) could not be determined
 Warning : Irrep of orbital(  96) could not be determined
 Warning : Irrep of orbital(  97) could not be determined
 Warning : Irrep of orbital(  98) could not be determined
 Warning : Irrep of orbital(  99) could not be determined
 Warning : Irrep of orbital( 100) could not be determined
 Warning : Irrep of orbital( 101) could not be determined
 Warning : Irrep of orbital( 102) could not be determined
 Warning : Irrep of orbital( 103) could not be determined
 Warning : Irrep of orbital( 104) could not be determined
 Warning : Irrep of orbital( 105) could not be determined
 Warning : Irrep of orbital( 106) could not be determined
 Warning : Irrep of orbital( 107) could not be determined
 Warning : Irrep of orbital( 108) could not be determined
 Warning : Irrep of orbital( 109) could not be determined
 Warning : Irrep of orbital( 110) could not be determined
 Warning : Irrep of orbital( 111) could not be determined
 Warning : Irrep of orbital( 112) could not be determined
 Warning : Irrep of orbital( 113) could not be determined
 Warning : Irrep of orbital( 114) could not be determined
 Warning : Irrep of orbital( 115) could not be determined
 Warning : Irrep of orbital( 116) could not be determined
 Warning : Irrep of orbital( 117) could not be determined
 Warning : Irrep of orbital( 118) could not be determined
 Warning : Irrep of orbital( 119) could not be determined
 Warning : Irrep of orbital( 120) could not be determined
 Warning : Irrep of orbital( 121) could not be determined
 Warning : Irrep of orbital( 122) could not be determined
 Warning : Irrep of orbital( 123) could not be determined
 Warning : Irrep of orbital( 124) could not be determined
 Warning : Irrep of orbital( 125) could not be determined
 Warning : Irrep of orbital( 126) could not be determined
 Warning : Irrep of orbital( 127) could not be determined
 Warning : Irrep of orbital( 128) could not be determined
 Warning : Irrep of orbital( 129) could not be determined
 Warning : Irrep of orbital( 130) could not be determined
 Warning : Irrep of orbital( 131) could not be determined
 Warning : Irrep of orbital( 132) could not be determined
 Warning : Irrep of orbital( 133) could not be determined
 Warning : Irrep of orbital( 134) could not be determined
 Warning : Irrep of orbital( 135) could not be determined
 Warning : Irrep of orbital( 136) could not be determined
 Warning : Irrep of orbital( 137) could not be determined
 Warning : Irrep of orbital( 138) could not be determined
 Warning : Irrep of orbital( 139) could not be determined
 Warning : Irrep of orbital( 140) could not be determined
 Warning : Irrep of orbital( 141) could not be determined
 Warning : Irrep of orbital( 142) could not be determined
 Warning : Irrep of orbital( 143) could not be determined
 Warning : Irrep of orbital( 144) could not be determined
 Warning : Irrep of orbital( 145) could not be determined
 Warning : Irrep of orbital( 146) could not be determined
 Warning : Irrep of orbital( 147) could not be determined
 Warning : Irrep of orbital( 148) could not be determined
 Warning : Irrep of orbital( 149) could not be determined
 Warning : Irrep of orbital( 150) could not be determined
 Warning : Irrep of orbital( 151) could not be determined
 Warning : Irrep of orbital( 152) could not be determined
 Warning : Irrep of orbital( 153) could not be determined
 Warning : Irrep of orbital( 154) could not be determined
 Warning : Irrep of orbital( 155) could not be determined
 Warning : Irrep of orbital( 156) could not be determined
 Warning : Irrep of orbital( 157) could not be determined
 Warning : Irrep of orbital( 158) could not be determined
 Warning : Irrep of orbital( 159) could not be determined
 Warning : Irrep of orbital( 160) could not be determined
 Warning : Irrep of orbital( 161) could not be determined
 Warning : Irrep of orbital( 162) could not be determined
 Warning : Irrep of orbital( 163) could not be determined
 Warning : Irrep of orbital( 164) could not be determined
 Warning : Irrep of orbital( 165) could not be determined
 Warning : Irrep of orbital( 166) could not be determined
 Warning : Irrep of orbital( 167) could not be determined
 Warning : Irrep of orbital( 168) could not be determined
 Warning : Irrep of orbital( 169) could not be determined
 Warning : Irrep of orbital( 170) could not be determined
 Warning : Irrep of orbital( 171) could not be determined
 Warning : Irrep of orbital( 172) could not be determined
 Warning : Irrep of orbital( 173) could not be determined
 Warning : Irrep of orbital( 174) could not be determined
 Warning : Irrep of orbital( 175) could not be determined
 Warning : Irrep of orbital( 176) could not be determined
 Warning : Irrep of orbital( 177) could not be determined
 Warning : Irrep of orbital( 178) could not be determined
 Warning : Irrep of orbital( 179) could not be determined
 Warning : Irrep of orbital( 180) could not be determined
 Warning : Irrep of orbital( 181) could not be determined
 Warning : Irrep of orbital( 182) could not be determined
 Warning : Irrep of orbital( 183) could not be determined
 Warning : Irrep of orbital( 184) could not be determined
 Warning : Irrep of orbital( 185) could not be determined
 Warning : Irrep of orbital( 186) could not be determined
 Warning : Irrep of orbital( 187) could not be determined
 Warning : Irrep of orbital( 188) could not be determined
 Warning : Irrep of orbital( 189) could not be determined
 Warning : Irrep of orbital( 190) could not be determined
 Warning : Irrep of orbital( 191) could not be determined
 Warning : Irrep of orbital( 192) could not be determined
 Warning : Irrep of orbital( 193) could not be determined
 Warning : Irrep of orbital( 194) could not be determined
 Warning : Irrep of orbital( 195) could not be determined
 Warning : Irrep of orbital( 196) could not be determined
 Warning : Irrep of orbital( 197) could not be determined
 Warning : Irrep of orbital( 198) could not be determined
 Warning : Irrep of orbital( 199) could not be determined
 Warning : Irrep of orbital( 200) could not be determined
 Warning : Irrep of orbital( 201) could not be determined
 Warning : Irrep of orbital( 202) could not be determined
 Warning : Irrep of orbital( 203) could not be determined
 Warning : Irrep of orbital( 204) could not be determined
 Warning : Irrep of orbital( 205) could not be determined
 Warning : Irrep of orbital( 206) could not be determined
 Warning : Irrep of orbital( 207) could not be determined
 Warning : Irrep of orbital( 208) could not be determined
 Warning : Irrep of orbital( 209) could not be determined
 Warning : Irrep of orbital( 210) could not be determined
 Warning : Irrep of orbital( 211) could not be determined
 Warning : Irrep of orbital( 212) could not be determined
 Warning : Irrep of orbital( 213) could not be determined
 Warning : Irrep of orbital( 214) could not be determined
 Warning : Irrep of orbital( 215) could not be determined
 Warning : Irrep of orbital( 216) could not be determined
 Warning : Irrep of orbital( 217) could not be determined
 Warning : Irrep of orbital( 218) could not be determined
 Warning : Irrep of orbital( 219) could not be determined
 Warning : Irrep of orbital( 220) could not be determined
 Warning : Irrep of orbital( 221) could not be determined
 Warning : Irrep of orbital( 222) could not be determined
 Warning : Irrep of orbital( 223) could not be determined
 Warning : Irrep of orbital( 224) could not be determined
 Warning : Irrep of orbital( 225) could not be determined
 Warning : Irrep of orbital( 226) could not be determined
 Warning : Irrep of orbital( 227) could not be determined
 Warning : Irrep of orbital( 228) could not be determined
 Warning : Irrep of orbital( 229) could not be determined
 Warning : Irrep of orbital( 230) could not be determined
 Warning : Irrep of orbital( 231) could not be determined
 Warning : Irrep of orbital( 232) could not be determined
 Warning : Irrep of orbital( 233) could not be determined
 
 Alpha MOs, Unrestricted
 -- Occupied --                  
    NaN     NaN     NaN     NaN     NaN     NaN     NaN     NaN
  0 xxx   0 xxx   0 xxx   0 xxx   0 xxx   0 xxx   0 xxx   0 xxx                
    NaN     NaN     NaN     NaN     NaN     NaN     NaN     NaN
  0 xxx   0 xxx   0 xxx   0 xxx   0 xxx   0 xxx   0 xxx   0 xxx                
    NaN     NaN     NaN     NaN     NaN     NaN     NaN     NaN
  0 xxx   0 xxx   0 xxx   0 xxx   0 xxx   0 xxx   0 xxx   0 xxx                
    NaN     NaN     NaN     NaN     NaN     NaN     NaN     NaN
  0 xxx   0 xxx   0 xxx   0 xxx   0 xxx   0 xxx   0 xxx   0 xxx                
    NaN     NaN     NaN     NaN     NaN     NaN     NaN     NaN
  0 xxx   0 xxx   0 xxx   0 xxx   0 xxx   0 xxx   0 xxx   0 xxx                
    NaN     NaN     NaN     NaN
  0 xxx   0 xxx   0 xxx   0 xxx                                                
 -- Virtual --                   
    NaN     NaN     NaN     NaN     NaN     NaN     NaN     NaN
  0 xxx   0 xxx   0 xxx   0 xxx   0 xxx   0 xxx   0 xxx   0 xxx                
    NaN     NaN     NaN     NaN     NaN     NaN     NaN     NaN
  0 xxx   0 xxx   0 xxx   0 xxx   0 xxx   0 xxx   0 xxx   0 xxx                
    NaN     NaN     NaN     NaN     NaN     NaN     NaN     NaN
  0 xxx   0 xxx   0 xxx   0 xxx   0 xxx   0 xxx   0 xxx   0 xxx                
    NaN     NaN     NaN     NaN     NaN     NaN     NaN     NaN
  0 xxx   0 xxx   0 xxx   0 xxx   0 xxx   0 xxx   0 xxx   0 xxx                
    NaN     NaN     NaN     NaN     NaN     NaN     NaN     NaN
  0 xxx   0 xxx   0 xxx   0 xxx   0 xxx   0 xxx   0 xxx   0 xxx                
    NaN     NaN     NaN     NaN     NaN     NaN     NaN     NaN
  0 xxx   0 xxx   0 xxx   0 xxx   0 xxx   0 xxx   0 xxx   0 xxx                
    NaN     NaN     NaN     NaN     NaN     NaN     NaN     NaN
  0 xxx   0 xxx   0 xxx   0 xxx   0 xxx   0 xxx   0 xxx   0 xxx                
    NaN     NaN     NaN     NaN     NaN     NaN     NaN     NaN
  0 xxx   0 xxx   0 xxx   0 xxx   0 xxx   0 xxx   0 xxx   0 xxx                
    NaN     NaN     NaN     NaN     NaN     NaN     NaN     NaN
  0 xxx   0 xxx   0 xxx   0 xxx   0 xxx   0 xxx   0 xxx   0 xxx                
    NaN     NaN     NaN     NaN     NaN     NaN     NaN     NaN
  0 xxx   0 xxx   0 xxx   0 xxx   0 xxx   0 xxx   0 xxx   0 xxx                
    NaN     NaN     NaN     NaN     NaN     NaN     NaN     NaN
  0 xxx   0 xxx   0 xxx   0 xxx   0 xxx   0 xxx   0 xxx   0 xxx                
    NaN     NaN     NaN     NaN     NaN     NaN     NaN     NaN
  0 xxx   0 xxx   0 xxx   0 xxx   0 xxx   0 xxx   0 xxx   0 xxx                
    NaN     NaN     NaN     NaN     NaN     NaN     NaN     NaN
  0 xxx   0 xxx   0 xxx   0 xxx   0 xxx   0 xxx   0 xxx   0 xxx                
    NaN     NaN     NaN     NaN     NaN     NaN     NaN     NaN
  0 xxx   0 xxx   0 xxx   0 xxx   0 xxx   0 xxx   0 xxx   0 xxx                
    NaN     NaN     NaN     NaN     NaN     NaN     NaN     NaN
  0 xxx   0 xxx   0 xxx   0 xxx   0 xxx   0 xxx   0 xxx   0 xxx                
    NaN     NaN     NaN     NaN     NaN     NaN     NaN     NaN
  0 xxx   0 xxx   0 xxx   0 xxx   0 xxx   0 xxx   0 xxx   0 xxx                
    NaN     NaN     NaN     NaN     NaN     NaN     NaN     NaN
  0 xxx   0 xxx   0 xxx   0 xxx   0 xxx   0 xxx   0 xxx   0 xxx                
    NaN     NaN     NaN     NaN     NaN     NaN     NaN     NaN
  0 xxx   0 xxx   0 xxx   0 xxx   0 xxx   0 xxx   0 xxx   0 xxx                
    NaN     NaN     NaN     NaN     NaN     NaN     NaN     NaN
  0 xxx   0 xxx   0 xxx   0 xxx   0 xxx   0 xxx   0 xxx   0 xxx                
    NaN     NaN     NaN     NaN     NaN     NaN     NaN     NaN
  0 xxx   0 xxx   0 xxx   0 xxx   0 xxx   0 xxx   0 xxx   0 xxx                
    NaN     NaN     NaN     NaN     NaN     NaN     NaN     NaN
  0 xxx   0 xxx   0 xxx   0 xxx   0 xxx   0 xxx   0 xxx   0 xxx                
    NaN     NaN     NaN     NaN     NaN     NaN     NaN     NaN
  0 xxx   0 xxx   0 xxx   0 xxx   0 xxx   0 xxx   0 xxx   0 xxx                
    NaN     NaN     NaN     NaN     NaN     NaN     NaN     NaN
  0 xxx   0 xxx   0 xxx   0 xxx   0 xxx   0 xxx   0 xxx   0 xxx                
    NaN     NaN     NaN     NaN     NaN
  0 xxx   0 xxx   0 xxx   0 xxx   0 xxx                                        
 Warning : Irrep of orbital(   1) could not be determined
 Warning : Irrep of orbital(   2) could not be determined
 Warning : Irrep of orbital(   3) could not be determined
 Warning : Irrep of orbital(   4) could not be determined
 Warning : Irrep of orbital(   5) could not be determined
 Warning : Irrep of orbital(   6) could not be determined
 Warning : Irrep of orbital(   7) could not be determined
 Warning : Irrep of orbital(   8) could not be determined
 Warning : Irrep of orbital(   9) could not be determined
 Warning : Irrep of orbital(  10) could not be determined
 Warning : Irrep of orbital(  11) could not be determined
 Warning : Irrep of orbital(  12) could not be determined
 Warning : Irrep of orbital(  13) could not be determined
 Warning : Irrep of orbital(  14) could not be determined
 Warning : Irrep of orbital(  15) could not be determined
 Warning : Irrep of orbital(  16) could not be determined
 Warning : Irrep of orbital(  17) could not be determined
 Warning : Irrep of orbital(  18) could not be determined
 Warning : Irrep of orbital(  19) could not be determined
 Warning : Irrep of orbital(  20) could not be determined
 Warning : Irrep of orbital(  21) could not be determined
 Warning : Irrep of orbital(  22) could not be determined
 Warning : Irrep of orbital(  23) could not be determined
 Warning : Irrep of orbital(  24) could not be determined
 Warning : Irrep of orbital(  25) could not be determined
 Warning : Irrep of orbital(  26) could not be determined
 Warning : Irrep of orbital(  27) could not be determined
 Warning : Irrep of orbital(  28) could not be determined
 Warning : Irrep of orbital(  29) could not be determined
 Warning : Irrep of orbital(  30) could not be determined
 Warning : Irrep of orbital(  31) could not be determined
 Warning : Irrep of orbital(  32) could not be determined
 Warning : Irrep of orbital(  33) could not be determined
 Warning : Irrep of orbital(  34) could not be determined
 Warning : Irrep of orbital(  35) could not be determined
 Warning : Irrep of orbital(  36) could not be determined
 Warning : Irrep of orbital(  37) could not be determined
 Warning : Irrep of orbital(  38) could not be determined
 Warning : Irrep of orbital(  39) could not be determined
 Warning : Irrep of orbital(  40) could not be determined
 Warning : Irrep of orbital(  41) could not be determined
 Warning : Irrep of orbital(  42) could not be determined
 Warning : Irrep of orbital(  43) could not be determined
 Warning : Irrep of orbital(  44) could not be determined
 Warning : Irrep of orbital(  45) could not be determined
 Warning : Irrep of orbital(  46) could not be determined
 Warning : Irrep of orbital(  47) could not be determined
 Warning : Irrep of orbital(  48) could not be determined
 Warning : Irrep of orbital(  49) could not be determined
 Warning : Irrep of orbital(  50) could not be determined
 Warning : Irrep of orbital(  51) could not be determined
 Warning : Irrep of orbital(  52) could not be determined
 Warning : Irrep of orbital(  53) could not be determined
 Warning : Irrep of orbital(  54) could not be determined
 Warning : Irrep of orbital(  55) could not be determined
 Warning : Irrep of orbital(  56) could not be determined
 Warning : Irrep of orbital(  57) could not be determined
 Warning : Irrep of orbital(  58) could not be determined
 Warning : Irrep of orbital(  59) could not be determined
 Warning : Irrep of orbital(  60) could not be determined
 Warning : Irrep of orbital(  61) could not be determined
 Warning : Irrep of orbital(  62) could not be determined
 Warning : Irrep of orbital(  63) could not be determined
 Warning : Irrep of orbital(  64) could not be determined
 Warning : Irrep of orbital(  65) could not be determined
 Warning : Irrep of orbital(  66) could not be determined
 Warning : Irrep of orbital(  67) could not be determined
 Warning : Irrep of orbital(  68) could not be determined
 Warning : Irrep of orbital(  69) could not be determined
 Warning : Irrep of orbital(  70) could not be determined
 Warning : Irrep of orbital(  71) could not be determined
 Warning : Irrep of orbital(  72) could not be determined
 Warning : Irrep of orbital(  73) could not be determined
 Warning : Irrep of orbital(  74) could not be determined
 Warning : Irrep of orbital(  75) could not be determined
 Warning : Irrep of orbital(  76) could not be determined
 Warning : Irrep of orbital(  77) could not be determined
 Warning : Irrep of orbital(  78) could not be determined
 Warning : Irrep of orbital(  79) could not be determined
 Warning : Irrep of orbital(  80) could not be determined
 Warning : Irrep of orbital(  81) could not be determined
 Warning : Irrep of orbital(  82) could not be determined
 Warning : Irrep of orbital(  83) could not be determined
 Warning : Irrep of orbital(  84) could not be determined
 Warning : Irrep of orbital(  85) could not be determined
 Warning : Irrep of orbital(  86) could not be determined
 Warning : Irrep of orbital(  87) could not be determined
 Warning : Irrep of orbital(  88) could not be determined
 Warning : Irrep of orbital(  89) could not be determined
 Warning : Irrep of orbital(  90) could not be determined
 Warning : Irrep of orbital(  91) could not be determined
 Warning : Irrep of orbital(  92) could not be determined
 Warning : Irrep of orbital(  93) could not be determined
 Warning : Irrep of orbital(  94) could not be determined
 Warning : Irrep of orbital(  95) could not be determined
 Warning : Irrep of orbital(  96) could not be determined
 Warning : Irrep of orbital(  97) could not be determined
 Warning : Irrep of orbital(  98) could not be determined
 Warning : Irrep of orbital(  99) could not be determined
 Warning : Irrep of orbital( 100) could not be determined
 Warning : Irrep of orbital( 101) could not be determined
 Warning : Irrep of orbital( 102) could not be determined
 Warning : Irrep of orbital( 103) could not be determined
 Warning : Irrep of orbital( 104) could not be determined
 Warning : Irrep of orbital( 105) could not be determined
 Warning : Irrep of orbital( 106) could not be determined
 Warning : Irrep of orbital( 107) could not be determined
 Warning : Irrep of orbital( 108) could not be determined
 Warning : Irrep of orbital( 109) could not be determined
 Warning : Irrep of orbital( 110) could not be determined
 Warning : Irrep of orbital( 111) could not be determined
 Warning : Irrep of orbital( 112) could not be determined
 Warning : Irrep of orbital( 113) could not be determined
 Warning : Irrep of orbital( 114) could not be determined
 Warning : Irrep of orbital( 115) could not be determined
 Warning : Irrep of orbital( 116) could not be determined
 Warning : Irrep of orbital( 117) could not be determined
 Warning : Irrep of orbital( 118) could not be determined
 Warning : Irrep of orbital( 119) could not be determined
 Warning : Irrep of orbital( 120) could not be determined
 Warning : Irrep of orbital( 121) could not be determined
 Warning : Irrep of orbital( 122) could not be determined
 Warning : Irrep of orbital( 123) could not be determined
 Warning : Irrep of orbital( 124) could not be determined
 Warning : Irrep of orbital( 125) could not be determined
 Warning : Irrep of orbital( 126) could not be determined
 Warning : Irrep of orbital( 127) could not be determined
 Warning : Irrep of orbital( 128) could not be determined
 Warning : Irrep of orbital( 129) could not be determined
 Warning : Irrep of orbital( 130) could not be determined
 Warning : Irrep of orbital( 131) could not be determined
 Warning : Irrep of orbital( 132) could not be determined
 Warning : Irrep of orbital( 133) could not be determined
 Warning : Irrep of orbital( 134) could not be determined
 Warning : Irrep of orbital( 135) could not be determined
 Warning : Irrep of orbital( 136) could not be determined
 Warning : Irrep of orbital( 137) could not be determined
 Warning : Irrep of orbital( 138) could not be determined
 Warning : Irrep of orbital( 139) could not be determined
 Warning : Irrep of orbital( 140) could not be determined
 Warning : Irrep of orbital( 141) could not be determined
 Warning : Irrep of orbital( 142) could not be determined
 Warning : Irrep of orbital( 143) could not be determined
 Warning : Irrep of orbital( 144) could not be determined
 Warning : Irrep of orbital( 145) could not be determined
 Warning : Irrep of orbital( 146) could not be determined
 Warning : Irrep of orbital( 147) could not be determined
 Warning : Irrep of orbital( 148) could not be determined
 Warning : Irrep of orbital( 149) could not be determined
 Warning : Irrep of orbital( 150) could not be determined
 Warning : Irrep of orbital( 151) could not be determined
 Warning : Irrep of orbital( 152) could not be determined
 Warning : Irrep of orbital( 153) could not be determined
 Warning : Irrep of orbital( 154) could not be determined
 Warning : Irrep of orbital( 155) could not be determined
 Warning : Irrep of orbital( 156) could not be determined
 Warning : Irrep of orbital( 157) could not be determined
 Warning : Irrep of orbital( 158) could not be determined
 Warning : Irrep of orbital( 159) could not be determined
 Warning : Irrep of orbital( 160) could not be determined
 Warning : Irrep of orbital( 161) could not be determined
 Warning : Irrep of orbital( 162) could not be determined
 Warning : Irrep of orbital( 163) could not be determined
 Warning : Irrep of orbital( 164) could not be determined
 Warning : Irrep of orbital( 165) could not be determined
 Warning : Irrep of orbital( 166) could not be determined
 Warning : Irrep of orbital( 167) could not be determined
 Warning : Irrep of orbital( 168) could not be determined
 Warning : Irrep of orbital( 169) could not be determined
 Warning : Irrep of orbital( 170) could not be determined
 Warning : Irrep of orbital( 171) could not be determined
 Warning : Irrep of orbital( 172) could not be determined
 Warning : Irrep of orbital( 173) could not be determined
 Warning : Irrep of orbital( 174) could not be determined
 Warning : Irrep of orbital( 175) could not be determined
 Warning : Irrep of orbital( 176) could not be determined
 Warning : Irrep of orbital( 177) could not be determined
 Warning : Irrep of orbital( 178) could not be determined
 Warning : Irrep of orbital( 179) could not be determined
 Warning : Irrep of orbital( 180) could not be determined
 Warning : Irrep of orbital( 181) could not be determined
 Warning : Irrep of orbital( 182) could not be determined
 Warning : Irrep of orbital( 183) could not be determined
 Warning : Irrep of orbital( 184) could not be determined
 Warning : Irrep of orbital( 185) could not be determined
 Warning : Irrep of orbital( 186) could not be determined
 Warning : Irrep of orbital( 187) could not be determined
 Warning : Irrep of orbital( 188) could not be determined
 Warning : Irrep of orbital( 189) could not be determined
 Warning : Irrep of orbital( 190) could not be determined
 Warning : Irrep of orbital( 191) could not be determined
 Warning : Irrep of orbital( 192) could not be determined
 Warning : Irrep of orbital( 193) could not be determined
 Warning : Irrep of orbital( 194) could not be determined
 Warning : Irrep of orbital( 195) could not be determined
 Warning : Irrep of orbital( 196) could not be determined
 Warning : Irrep of orbital( 197) could not be determined
 Warning : Irrep of orbital( 198) could not be determined
 Warning : Irrep of orbital( 199) could not be determined
 Warning : Irrep of orbital( 200) could not be determined
 Warning : Irrep of orbital( 201) could not be determined
 Warning : Irrep of orbital( 202) could not be determined
 Warning : Irrep of orbital( 203) could not be determined
 Warning : Irrep of orbital( 204) could not be determined
 Warning : Irrep of orbital( 205) could not be determined
 Warning : Irrep of orbital( 206) could not be determined
 Warning : Irrep of orbital( 207) could not be determined
 Warning : Irrep of orbital( 208) could not be determined
 Warning : Irrep of orbital( 209) could not be determined
 Warning : Irrep of orbital( 210) could not be determined
 Warning : Irrep of orbital( 211) could not be determined
 Warning : Irrep of orbital( 212) could not be determined
 Warning : Irrep of orbital( 213) could not be determined
 Warning : Irrep of orbital( 214) could not be determined
 Warning : Irrep of orbital( 215) could not be determined
 Warning : Irrep of orbital( 216) could not be determined
 Warning : Irrep of orbital( 217) could not be determined
 Warning : Irrep of orbital( 218) could not be determined
 Warning : Irrep of orbital( 219) could not be determined
 Warning : Irrep of orbital( 220) could not be determined
 Warning : Irrep of orbital( 221) could not be determined
 Warning : Irrep of orbital( 222) could not be determined
 Warning : Irrep of orbital( 223) could not be determined
 Warning : Irrep of orbital( 224) could not be determined
 Warning : Irrep of orbital( 225) could not be determined
 Warning : Irrep of orbital( 226) could not be determined
 Warning : Irrep of orbital( 227) could not be determined
 Warning : Irrep of orbital( 228) could not be determined
 Warning : Irrep of orbital( 229) could not be determined
 Warning : Irrep of orbital( 230) could not be determined
 Warning : Irrep of orbital( 231) could not be determined
 Warning : Irrep of orbital( 232) could not be determined
 Warning : Irrep of orbital( 233) could not be determined
 
 Beta MOs, Unrestricted
 -- Occupied --                  
    NaN     NaN     NaN     NaN     NaN     NaN     NaN     NaN
  0 xxx   0 xxx   0 xxx   0 xxx   0 xxx   0 xxx   0 xxx   0 xxx                
    NaN     NaN     NaN     NaN     NaN     NaN     NaN     NaN
  0 xxx   0 xxx   0 xxx   0 xxx   0 xxx   0 xxx   0 xxx   0 xxx                
    NaN     NaN     NaN     NaN     NaN     NaN     NaN     NaN
  0 xxx   0 xxx   0 xxx   0 xxx   0 xxx   0 xxx   0 xxx   0 xxx                
    NaN     NaN     NaN     NaN     NaN     NaN     NaN     NaN
  0 xxx   0 xxx   0 xxx   0 xxx   0 xxx   0 xxx   0 xxx   0 xxx                
    NaN     NaN     NaN     NaN     NaN     NaN     NaN     NaN
  0 xxx   0 xxx   0 xxx   0 xxx   0 xxx   0 xxx   0 xxx   0 xxx                
    NaN     NaN     NaN
  0 xxx   0 xxx   0 xxx                                                        
 -- Virtual --                   
    NaN     NaN     NaN     NaN     NaN     NaN     NaN     NaN
  0 xxx   0 xxx   0 xxx   0 xxx   0 xxx   0 xxx   0 xxx   0 xxx                
    NaN     NaN     NaN     NaN     NaN     NaN     NaN     NaN
  0 xxx   0 xxx   0 xxx   0 xxx   0 xxx   0 xxx   0 xxx   0 xxx                
    NaN     NaN     NaN     NaN     NaN     NaN     NaN     NaN
  0 xxx   0 xxx   0 xxx   0 xxx   0 xxx   0 xxx   0 xxx   0 xxx                
    NaN     NaN     NaN     NaN     NaN     NaN     NaN     NaN
  0 xxx   0 xxx   0 xxx   0 xxx   0 xxx   0 xxx   0 xxx   0 xxx                
    NaN     NaN     NaN     NaN     NaN     NaN     NaN     NaN
  0 xxx   0 xxx   0 xxx   0 xxx   0 xxx   0 xxx   0 xxx   0 xxx                
    NaN     NaN     NaN     NaN     NaN     NaN     NaN     NaN
  0 xxx   0 xxx   0 xxx   0 xxx   0 xxx   0 xxx   0 xxx   0 xxx                
    NaN     NaN     NaN     NaN     NaN     NaN     NaN     NaN
  0 xxx   0 xxx   0 xxx   0 xxx   0 xxx   0 xxx   0 xxx   0 xxx                
    NaN     NaN     NaN     NaN     NaN     NaN     NaN     NaN
  0 xxx   0 xxx   0 xxx   0 xxx   0 xxx   0 xxx   0 xxx   0 xxx                
    NaN     NaN     NaN     NaN     NaN     NaN     NaN     NaN
  0 xxx   0 xxx   0 xxx   0 xxx   0 xxx   0 xxx   0 xxx   0 xxx                
    NaN     NaN     NaN     NaN     NaN     NaN     NaN     NaN
  0 xxx   0 xxx   0 xxx   0 xxx   0 xxx   0 xxx   0 xxx   0 xxx                
    NaN     NaN     NaN     NaN     NaN     NaN     NaN     NaN
  0 xxx   0 xxx   0 xxx   0 xxx   0 xxx   0 xxx   0 xxx   0 xxx                
    NaN     NaN     NaN     NaN     NaN     NaN     NaN     NaN
  0 xxx   0 xxx   0 xxx   0 xxx   0 xxx   0 xxx   0 xxx   0 xxx                
    NaN     NaN     NaN     NaN     NaN     NaN     NaN     NaN
  0 xxx   0 xxx   0 xxx   0 xxx   0 xxx   0 xxx   0 xxx   0 xxx                
    NaN     NaN     NaN     NaN     NaN     NaN     NaN     NaN
  0 xxx   0 xxx   0 xxx   0 xxx   0 xxx   0 xxx   0 xxx   0 xxx                
    NaN     NaN     NaN     NaN     NaN     NaN     NaN     NaN
  0 xxx   0 xxx   0 xxx   0 xxx   0 xxx   0 xxx   0 xxx   0 xxx                
    NaN     NaN     NaN     NaN     NaN     NaN     NaN     NaN
  0 xxx   0 xxx   0 xxx   0 xxx   0 xxx   0 xxx   0 xxx   0 xxx                
    NaN     NaN     NaN     NaN     NaN     NaN     NaN     NaN
  0 xxx   0 xxx   0 xxx   0 xxx   0 xxx   0 xxx   0 xxx   0 xxx                
    NaN     NaN     NaN     NaN     NaN     NaN     NaN     NaN
  0 xxx   0 xxx   0 xxx   0 xxx   0 xxx   0 xxx   0 xxx   0 xxx                
    NaN     NaN     NaN     NaN     NaN     NaN     NaN     NaN
  0 xxx   0 xxx   0 xxx   0 xxx   0 xxx   0 xxx   0 xxx   0 xxx                
    NaN     NaN     NaN     NaN     NaN     NaN     NaN     NaN
  0 xxx   0 xxx   0 xxx   0 xxx   0 xxx   0 xxx   0 xxx   0 xxx                
    NaN     NaN     NaN     NaN     NaN     NaN     NaN     NaN
  0 xxx   0 xxx   0 xxx   0 xxx   0 xxx   0 xxx   0 xxx   0 xxx                
    NaN     NaN     NaN     NaN     NaN     NaN     NaN     NaN
  0 xxx   0 xxx   0 xxx   0 xxx   0 xxx   0 xxx   0 xxx   0 xxx                
    NaN     NaN     NaN     NaN     NaN     NaN     NaN     NaN
  0 xxx   0 xxx   0 xxx   0 xxx   0 xxx   0 xxx   0 xxx   0 xxx                
    NaN     NaN     NaN     NaN     NaN     NaN
  0 xxx   0 xxx   0 xxx   0 xxx   0 xxx   0 xxx                                
 --------------------------------------------------------------
 
          Ground-State Mulliken Net Atomic Charges

     Atom                 Charge (a.u.)    Spin (a.u.)
  --------------------------------------------------------
      1 S                          NaN            NaN
      2 C                          NaN            NaN
      3 C                          NaN            NaN
      4 C                          NaN            NaN
      5 C                          NaN            NaN
      6 H                          NaN            NaN
      7 C                          NaN            NaN
      8 S                          NaN            NaN
      9 C                          NaN            NaN
     10 C                          NaN            NaN
     11 C                          NaN            NaN
     12 H                          NaN            NaN
     13 H                          NaN            NaN
     14 H                          NaN            NaN
     15 H                          NaN            NaN
     16 H                          NaN            NaN
  --------------------------------------------------------
  Sum of atomic charges =          NaN
  Sum of spin   charges =          NaN

 -----------------------------------------------------------------
                    Cartesian Multipole Moments
 -----------------------------------------------------------------
    Charge (ESU x 10^10)
                    NaN
    Dipole Moment (Debye)
         X          NaN      Y          NaN      Z          NaN
       Tot          NaN
    Quadrupole Moments (Debye-Ang)
        XX          NaN     XY          NaN     YY          NaN
        XZ          NaN     YZ          NaN     ZZ          NaN
    Octopole Moments (Debye-Ang^2)
       XXX          NaN    XXY          NaN    XYY          NaN
       YYY          NaN    XXZ          NaN    XYZ          NaN
       YYZ          NaN    XZZ          NaN    YZZ          NaN
       ZZZ          NaN
    Hexadecapole Moments (Debye-Ang^3)
      XXXX          NaN   XXXY          NaN   XXYY          NaN
      XYYY          NaN   YYYY          NaN   XXXZ          NaN
      XXYZ          NaN   XYYZ          NaN   YYYZ          NaN
      XXZZ          NaN   XYZZ          NaN   YYZZ          NaN
      XZZZ          NaN   YZZZ          NaN   ZZZZ          NaN
 -----------------------------------------------------------------
 Calculating analytic gradient of the SCF energy
 Inaccurate integrated density:
   Number of electrons =    87
   Numerical integral  =     0.000000000000
   Relative error      =  -100.0000000000 %
 Gradient of SCF Energy
            1           2           3           4           5           6
    1        -nan        -nan        -nan        -nan        -nan        -nan
    2        -nan        -nan        -nan        -nan        -nan        -nan
    3        -nan        -nan        -nan        -nan        -nan        -nan
            7           8           9          10          11          12
    1        -nan        -nan        -nan        -nan        -nan        -nan
    2        -nan        -nan        -nan        -nan        -nan        -nan
    3        -nan        -nan        -nan        -nan        -nan        -nan
           13          14          15          16
    1        -nan        -nan        -nan        -nan
    2        -nan        -nan        -nan        -nan
    3        -nan        -nan        -nan        -nan
 Max gradient component =       0.000E+00
 RMS gradient           =            -NAN
 Gradient time:  CPU 0.28 s  wall 0.26 s
 Geometry Optimization Parameters
   NAtoms,    NIC,     NZ,  NCons,   NDum,   NFix, NCnnct, MaxDiis
       16     111       0       1       0       0       0       0


** CONSTRAINED OPTIMIZATION IN DELOCALIZED INTERNAL COORDINATES **
   Searching for a Minimum

   Optimization Cycle:   1

                       Coordinates (Angstroms)
     ATOM                X               Y               Z
      1  S         1.8335828340   -1.1689892972    0.3997345519
      2  C         3.2342819681   -0.1303974225    0.1085231876
      3  C         2.8335012508    1.1070439767   -0.3597672269
      4  C         1.4368176660    1.2588638776   -0.4957025788
      5  C         0.6951863151    0.1122471414   -0.1267310233
      6  H         0.9595705189    2.1668617875   -0.8486612947
      7  C        -0.6951863151   -0.1122471414   -0.1267310233
      8  S        -1.8335828340    1.1689892972    0.3997345519
      9  C        -1.4368176660   -1.2588638776   -0.4957025788
     10  C        -3.2342819681    0.1303974225    0.1085231876
     11  C        -2.8335012508   -1.1070439767   -0.3597672269
     12  H        -3.5415497956   -1.8961082629   -0.6022714070
     13  H         4.2331287949   -0.4985799987    0.2972456441
     14  H         3.5415497956    1.8961082629   -0.6022714070
     15  H        -4.2331287949    0.4985799987    0.2972456441
     16  H        -0.9595705189   -2.1668617875   -0.8486612947
   Point Group: c2    Number of degrees of freedom:    22


   Energy is              NaN

              Constraints and their Current Values
                                        Value     Constraint
   Dihedral:        4   5   7   9      140.000      140.000

 Attempting to Generate Delocalized Internal Coordinates

  ***ERROR*** Wrong Number of Internal Coordinates
              Should be:  22  Found:   0
**WARNING** Problems with Internal Coordinates
  Switching to Cartesian Coordinates

   Using Lagrange Multiplier Algorithm


 Translations and Rotations Projected Out of Hessian

 43 Hessian modes will be used to form the next step
  Hessian Eigenvalues:
    -0.364501    1.000000    1.000000    1.000000    1.000000    1.000000
     1.000000    1.000000    1.000000    1.000000    1.000000    1.000000
     1.000000    1.000000    1.000000    1.000000    1.000000    1.000000
     1.000000    1.000000    1.000000    1.000000    1.000000    1.000000
     1.000000    1.000000    1.000000    1.000000    1.000000    1.000000
     1.000000    1.000000    1.000000    1.000000    1.000000    1.000000
     1.000000    1.000000    1.000000    1.000000    1.000000    1.000000
     1.364501

 Minimum Search - Taking P-RFO Step
 Searching for Lamda that Maximizes Along the Constraint modes Only
 Value Taken    Lamda =          NaN
 Searching for Lamda that Minimizes Along All other modes


 *******************************************
 ** UNABLE TO DETERMINE Lamda IN CONFormD **
 *******************************************


**WARNING** Problems with Lagrangian - Switching to Penalty functions

   Using Penalty Function Algorithm


 Translations and Rotations Projected Out of Hessian

 42 Hessian modes will be used to form the next step
  Hessian Eigenvalues:
     0.999999    1.000000    1.000000    1.000000    1.000000    1.000000
     1.000000    1.000000    1.000000    1.000000    1.000000    1.000000
     1.000000    1.000000    1.000000    1.000000    1.000000    1.000000
     1.000000    1.000000    1.000000    1.000000    1.000000    1.000000
     1.000000    1.000000    1.000000    1.000000    1.000000    1.000000
     1.000000    1.000000    1.000000    1.000000    1.000000    1.000000
     1.000000    1.000000    1.000000    1.000000    1.000000    5.973629

 Minimum Search - Taking Simple RFO Step
 Searching for Lamda that Minimizes Along All modes


 ****************************************
 ** UNABLE TO DETERMINE Lamda IN FormD **
 ****************************************



 Taking Simple Newton-Raphson Step
 Step Taken.  Stepsize is       NaN

                             Maximum     Tolerance    Cnvgd?
         Gradient                NaN      0.000300      NO
         Displacement            NaN      0.001200      NO
         Energy change           NaN      0.000001      NO

 ----------------------------------------------------------------
             Standard Nuclear Orientation (Angstroms)
    I     Atom           X                Y                Z
 ----------------------------------------------------------------
    1      S                NaN              NaN              NaN
    2      C                NaN              NaN              NaN
    3      C                NaN              NaN              NaN
    4      C                NaN              NaN              NaN
    5      C                NaN              NaN              NaN
    6      H                NaN              NaN              NaN
    7      C                NaN              NaN              NaN
    8      S                NaN              NaN              NaN
    9      C                NaN              NaN              NaN
   10      C                NaN              NaN              NaN
   11      C                NaN              NaN              NaN
   12      H                NaN              NaN              NaN
   13      H                NaN              NaN              NaN
   14      H                NaN              NaN              NaN
   15      H                NaN              NaN              NaN
   16      H                NaN              NaN              NaN
 ----------------------------------------------------------------
 Molecular Point Group                 C2    NOp =  2
 Largest Abelian Subgroup              C2    NOp =  2
 Nuclear Repulsion Energy =              NaN hartrees
 There are       44 alpha and       43 beta electrons
 Applying Cartesian multipole field
    Component          Value
    ---------          -----
     (2,0,0)        1.00000E-11
     (0,2,0)        2.00000E-11
     (0,0,2)       -3.00000E-11
 Requested basis set is 6-31++G(d,p)
 There are 76 shells and 234 basis functions
