srun -N 1 --ntasks-per-node 16 --nodelist nid01047 /global/project/projectdirs/jcesr/qchem/qc44/cnl_qc441/dist/exe/qcprog.cori.exe .pt_charged_dft_-100.0.in.17657.qcin.1 /dev/shm/eg_qchem/qchem17657/
Process 0 of 16 is on nid01047 - thread support 0
Process 1 of 16 is on nid01047 - thread support 0
Process 2 of 16 is on nid01047 - thread support 0
Process 3 of 16 is on nid01047 - thread support 0
Process 4 of 16 is on nid01047 - thread support 0
Process 5 of 16 is on nid01047 - thread support 0
Process 6 of 16 is on nid01047 - thread support 0
Process 15 of 16 is on nid01047 - thread support 0
initial socket setup ...start
initial socket setup ...done 
now start server 0 ... 
nid01047 10.128.4
Q-Chem Developer Version! Running on 10.128.4.*
                  Welcome to Q-Chem
     A Quantum Leap Into The Future Of Chemistry


 Q-Chem 4.4, Q-Chem, Inc., Pleasanton, CA (2016)

 Y. Shao,  Z. Gan,  E. Epifanovsky,  A. T. B. Gilbert,  M. Wormit,  
 J. Kussmann,  A. W. Lange,  A. Behn,  J. Deng,  X. Feng,  D. Ghosh,  
 M. Goldey,  P. R. Horn,  L. D. Jacobson,  I. Kaliman,  F.Rob,  
 R. Z. Khaliullin,  T. Kus,  A. Landau,  J. Liu,  E. I. Proynov,  Y. M. Rhee,  
 R. M. Richard,  M. A. Rohrdanz,  R. P. Steele,  E. J. Sundstrom,  
 H. L. Woodcock III,  P. M. Zimmerman,  D. Zuev,  B. Albrecht,  E. Alguire,  
 B. Austin,  S. A. Baeppler,  G. J. O. Beran,  Y. A. Bernard,  E. Berquist,  
 K. Brandhorst,  K. B. Bravaya,  S. T. Brown,  D. Casanova,  C.-M. Chang,  
 Y. Chen,  S. H. Chien,  K. D. Closser,  M. P. Coons,  D. L. Crittenden,  
 S. Dasgupta,  M. Diedenhofen,  R. A. DiStasio Jr.,  H. Do,  A. D. Dutoi,  
 R. G. Edgar,  P.-T. Fang,  S. Fatehi,  Q. Feng,  L. Fusti-Molnar,  
 A. Ghysels,  A. Golubeva-Zadorozhnaya,  J. Gomes,  A. Gunina,  
 M. W. D. Hanson-Heine,  P. H. P. Harbach,  A. W. Hauser,  E. G. Hohenstein,  
 Z. C. Holden,  K. Hui,  T.-C. Jagau,  H. Ji,  B. Kaduk,  K. Khistyaev,  
 Jaehoon Kim,  Jihan Kim,  R. A. King,  P. Klunzinger,  D. Kosenkov,  
 T. Kowalczyk,  C. M. Krauter,  A. Kunitsa,  K. U. Lao,  A. Laurent,  
 K. V. Lawler,  D. Lefrancois,  S. Lehtola,  S. V. Levchenko,  C. Y. Lin,  
 Y.-S. Lin,  F. Liu,  E. Livshits,  R. C. Lochan,  A. Luenser,  P. Manohar,  
 S. F. Manzer,  S.-P. Mao,  Y. Mao,  N. Mardirossian,  A. V. Marenich,  
 L. A. Martinez-Martinez,  S. A. Maurer,  N. J. Mayhall,  J.-M. Mewes,  
 A. F. Morrison,  K. Nanda,  C. M. Oana,  R. Olivares-Amaya,  D. P. O'Neill,  
 J. A. Parkhill,  T. M. Perrine,  R. Peverati,  P. A. Pieniazek,  F. Plasser,  
 A. Prociuk,  D. R. Rehn,  E. Rosta,  N. J. Russ,  N. Sergueev,  
 S. M. Sharada,  S. Sharma,  D. W. Small,  A. Sodt,  T. Stauch,  T. Stein,  
 D. Stuck,  Y.-C. Su,  A. J. W. Thom,  T. Tsuchimochi,  L. Vogt,  O. Vydrov,  
 T. Wang,  M. A. Watson,  J. Wenzel,  A. White,  C. F. Williams,  
 V. Vanovschi,  S. Yeganeh,  S. R. Yost,  Z.-Q. You,  I. Y. Zhang,  X. Zhang,  
 Y. Zhao,  B. R. Brooks,  G. K. L. Chan,  D. M. Chipman,  C. J. Cramer,  
 W. A. Goddard III,  M. S. Gordon,  W. J. Hehre,  A. Klamt,  
 H. F. Schaefer III,  M. W. Schmidt,  C. D. Sherrill,  D. G. Truhlar,  
 A. Warshel,  X. Xu,  A. Aspuru-Guzik,  R. Baer,  A. T. Bell,  N. A. Besley,  
 J.-D. Chai,  A. Dreuw,  B. D. Dunietz,  T. R. Furlani,  S. R. Gwaltney,  
 C.-P. Hsu,  Y. Jung,  J. Kong,  D. S. Lambrecht,  W. Liang,  C. Ochsenfeld,  
 V. A. Rassolov,  L. V. Slipchenko,  J. E. Subotnik,  T. Van Voorhis,  
 J. M. Herbert,  A. I. Krylov,  P. M. W. Gill,  M. Head-Gordon

 Contributors to earlier versions of Q-Chem not listed above: 
 R. D. Adamson,  J. Baker,  E. F. C. Byrd,  A. K. Chakraborty,  C.-L. Cheng,  
 H. Dachsel,  R. J. Doerksen,  G. Hawkins,  A. Heyden,  S. Hirata,  
 G. Kedziora,  F. J. Keil,  C. Kelley,  P. P. Korambath,  W. Kurlancheek,  
 A. M. Lee,  M. S. Lee,  D. Liotard,  I. Lotan,  P. E. Maslen,  N. Nair,  
 D. Neuhauser,  R. Olson,  B. Peters,  J. Ritchie,  N. E. Schultz,  
 N. Shenvi,  A. C. Simmonett,  K. S. Thanthiriwatte,  Q. Wu,  W. Zhang

 Please cite Q-Chem as follows:
 Y. Shao et al., Mol. Phys. 113, 184-215 (2015)
 DOI: 10.1080/00268976.2014.952696

 Q-Chem 4.4.1 for Intel X86 EM64T Linux

 Parts of Q-Chem use Armadillo 5.200.1 (Boston Tea Smuggler).
 http://arma.sourceforge.net/

 Q-Chem begins on Tue Sep  6 23:18:18 2016  

Host: nid01047
0

     Scratch files written to /dev/shm/eg_qchem/qchem17657.0//
 Parallel job on  16  processors

Checking the input file for inconsistencies... 	...done.

--------------------------------------------------------------
User input:
--------------------------------------------------------------
$comment
<SCF Fix Strategy>{
    "current_method_id": 6, 
    "methods": [
        "increase_iter", 
        "diis_gdm", 
        "gwh", 
        "rca", 
        "gdm", 
        "core+gdm", 
        "fon"
    ], 
    "version": 2.0
}</SCF Fix Strategy>
$end


$molecule
 -1  2
 S           1.83794975       -1.27576249       -0.14871336
 C           3.23937819       -0.19806434       -0.14823333
 C           2.83626844        1.12431397       -0.14890172
 C           1.43724334        1.31134696       -0.14931220
 C           0.69606563        0.10654716       -0.14908151
 H           0.95807640        2.28459073       -0.14860036
 C          -0.69610330       -0.10652413       -0.14907621
 S          -1.64553114        0.01827312       -1.66489014
 C          -1.57217963       -0.42989424        0.91337804
 C          -3.15375640       -0.36161283       -0.82442695
 C          -2.92166932       -0.56652645        0.52291427
 H          -3.71833601       -0.81289197        1.22104724
 H           4.24016475       -0.60708034       -0.14954918
 H           3.54430111        1.94981573       -0.14910914
 H          -4.08484050       -0.40803386       -1.37196424
 H          -1.22251434       -0.55697229        1.93239239
$end


$rem
          jobtype = opt
         exchange = b3lyp
            basis = 6-31++g**
     fon_e_thresh = 6
         fon_norb = 9
        fon_t_end = 300
      fon_t_start = 300
   max_scf_cycles = 200
       mem_static = 100
        mem_total = 1500
      occupations = 2
    scf_algorithm = diis
  scf_convergence = 7
        scf_guess = sad
           thresh = 14
$end


$opt
CONSTRAINT
tors 4 5 7 9 -100.0
ENDCONSTRAINT
$end

--------------------------------------------------------------
 Atom   8: ( -1.7526953360,  0.9772660912, -0.7515780776)
         ->( -1.7526952562,  0.9772661022, -0.7515780538)
 Atom  10: ( -3.2121998588,  0.1442604926, -0.2025941393)
         ->( -3.2121998402,  0.1442604144, -0.2025943575)
 Atom  11: ( -2.8903286162, -0.8729442696,  0.6765393785)
         ->( -2.8903286936, -0.8729441473,  0.6765393961)
 Atom   9: ( -1.5091378266, -1.0133939882,  0.9311736636)
         ->( -1.5091379212, -1.0133940090,  0.9311736920)
 Atom   7: ( -0.6991759394, -0.0838833276,  0.2377339255)
         ->( -0.6991759518, -0.0838834529,  0.2377339013)
 Atom  16: ( -1.0907189763, -1.7607750041,  1.5968704220)
         ->( -1.0907191175, -1.7607750865,  1.5968704162)
 Atom  14: (  3.6445370083,  1.5103957224,  1.1321585003)
         ->(  3.6445368388,  1.5103960166,  1.1321583592)
 Atom  15: ( -4.1835849806,  0.4555484085, -0.5608962129)
         ->( -4.1835849518,  0.4555486313, -0.5608961428)
 ----------------------------------------------------------------
             Standard Nuclear Orientation (Angstroms)
    I     Atom           X                Y                Z
 ----------------------------------------------------------------
    1      S       1.7526952562    -0.9772661022    -0.7515780538
    2      C       3.2121998402    -0.1442604144    -0.2025943575
    3      C       2.8903286936     0.8729441473     0.6765393961
    4      C       1.5091379212     1.0133940090     0.9311736920
    5      C       0.6991759518     0.0838834529     0.2377339013
    6      H       1.0907191175     1.7607750865     1.5968704162
    7      C      -0.6991759518    -0.0838834529     0.2377339013
    8      S      -1.7526952562     0.9772661022    -0.7515780538
    9      C      -1.5091379212    -1.0133940090     0.9311736920
   10      C      -3.2121998402     0.1442604144    -0.2025943575
   11      C      -2.8903286936    -0.8729441473     0.6765393961
   12      H      -3.6445368388    -1.5103960166     1.1321583592
   13      H       4.1835849518    -0.4555486313    -0.5608961428
   14      H       3.6445368388     1.5103960166     1.1321583592
   15      H      -4.1835849518     0.4555486313    -0.5608961428
   16      H      -1.0907191175    -1.7607750865     1.5968704162
 ----------------------------------------------------------------
 Molecular Point Group                 C2    NOp =  2
 Largest Abelian Subgroup              C2    NOp =  2
 Nuclear Repulsion Energy =   622.9215473200 hartrees
 There are       44 alpha and       43 beta electrons
 Requested basis set is 6-31++G(d,p)
 There are 76 shells and 234 basis functions

 Total QAlloc Memory Limit   1500 MB
 Mega-Array Size        98 MB
 MEM_STATIC part       100 MB
 A cutoff of  1.0D-14 yielded   2602 shell pairs
 There are     25484 function pairs
 
 -------------------------------------------------------
 OpenMP Integral Computing Module                       
 Release: version 1.0, May 2013, Q-Chem Inc. Pittsburgh 
 -------------------------------------------------------
 Integral Job Info:
 Integral job number is                      11
 Integral operator is                         1
 short-range coefficients                     0
 long-range coefficients              100000000
 Omega coefficients                           0
 if combine SR and LR in K                    0
 Integral screening is                        0
 Integral computing path is                   2
 max size of driver memory is            800000
 size of driver memory is                593474
 size of scratch memory is             15166112
 max col of scratch BK array               1296
 max len of scratch array in speh3          155
 max len of scratch index in speh4           18
 max int batch size is                      520
 min int batch size is                       52
 fixed nKL is                                52
 max L of basis functions is                  2
 order of int derivative is                   0
 number of shells is                         76
 number of basis is                         234
 number of cartesian basis is               234
 number of contracted shell pairs          2602
 number of primitive shell pairs           8594
 maxK2 (contraction) of shell pair           36
 max number of K2 of shell pair               1
 max number of CS2 of shell pair            260
 max number of PS2 of shell pair           1524
 mem total for path MDJ                   51378
 -------------------------------------------------------
 Smallest overlap matrix eigenvalue = 9.35E-07
 Linear dependence detected in AO basis
 Number of orthogonalized atomic orbitals = 233
 Maximum deviation from orthogonality = 4.046E-11

 Scale SEOQF with 1.000000e-01/1.000000e-01/1.000000e-01

 Standard Electronic Orientation quadrupole field applied
 Nucleus-field energy     =     0.0000000149 hartrees
 Guess from superposition of atomic densities
 Warning:  Energy on first SCF cycle will be non-variational

-------------------------------------------------
Fractional occupation number algorithm turned on.
-------------------------------------------------

Initial Temperature =    300.000 K
Final Temperature =    300.000 K
-------------------------------------------------

 An unrestricted hybrid HF-DFT SCF calculation will be
 performed using Pulay DIIS extrapolation
 Exchange:     0.2000 Hartree-Fock + 0.0800 Slater + 0.7200 B88
 Correlation:  0.1900 VWN1RPA + 0.8100 LYP
 Using SG-1 standard quadrature grid
 SCF converges when DIIS error is below 1.0E-07
 Inaccurate integrated density:
   Number of electrons =    87
   Numerical integral  =    86.000070814886
   Relative error      =    -1.1493438909 %

---- Fractional Occupation Number Information ----
Temperature =    300.000 K
Fermi level =  -0.291160 Hartree
HOMO-LUMO gap =   0.010121 Hartree
Number of active orbitals = 18
Number of active electrons = 9
EMax =   4.29e-02
thresh =   1.00e-06
Generating Pseudo-Fermi distribution of occupation numbers.
--
# Rescaled active electrons =      9.000
Writing occupation numbers to disk ...
---- Fractional Occupation Number Information End ----


---- Fractional Occupation Number Information ----
Temperature =    300.000 K
Fermi level =  -0.297481 Hartree
HOMO-LUMO gap =   0.002520 Hartree
Number of active orbitals = 18
Number of active electrons = 9
EMax =   4.29e-02
thresh =   1.00e-06
Generating Pseudo-Fermi distribution of occupation numbers.
--
# Rescaled active electrons =      9.000
Writing occupation numbers to disk ...
---- Fractional Occupation Number Information End ----

 ---------------------------------------
  Cycle       Energy         DIIS Error
 ---------------------------------------
    1   -1106.9915003658      4.29E-02

---- Fractional Occupation Number Information ----
Temperature =    300.000 K
Fermi level =  -0.313195 Hartree
HOMO-LUMO gap =   0.027719 Hartree
Number of active orbitals = 18
Number of active electrons = 9
EMax =   4.02e-02
thresh =   1.00e-06
Generating Pseudo-Fermi distribution of occupation numbers.
--
# Rescaled active electrons =      9.000
Writing occupation numbers to disk ...
---- Fractional Occupation Number Information End ----


---- Fractional Occupation Number Information ----
Temperature =    300.000 K
Fermi level =  -0.333595 Hartree
HOMO-LUMO gap =   0.021915 Hartree
Number of active orbitals = 18
Number of active electrons = 9
EMax =   4.02e-02
thresh =   1.00e-06
Generating Pseudo-Fermi distribution of occupation numbers.
--
# Rescaled active electrons =      9.000
Writing occupation numbers to disk ...
---- Fractional Occupation Number Information End ----

    2   -1100.5078890923      4.02E-02

---- Fractional Occupation Number Information ----
Temperature =    300.000 K
Fermi level =  -0.162652 Hartree
HOMO-LUMO gap =   0.003841 Hartree
Number of active orbitals = 18
Number of active electrons = 9
EMax =   1.39e-01
thresh =   1.00e-06
Generating Pseudo-Fermi distribution of occupation numbers.
--
# Rescaled active electrons =      9.000
Writing occupation numbers to disk ...
---- Fractional Occupation Number Information End ----


---- Fractional Occupation Number Information ----
Temperature =    300.000 K
Fermi level =  -0.236331 Hartree
HOMO-LUMO gap =   0.136127 Hartree
Number of active orbitals = 18
Number of active electrons = 9
EMax =   1.39e-01
thresh =   1.00e-06
Generating Pseudo-Fermi distribution of occupation numbers.
--
# Rescaled active electrons =      9.000
Writing occupation numbers to disk ...
---- Fractional Occupation Number Information End ----

    3   -1099.4336930496      1.39E-01

---- Fractional Occupation Number Information ----
Temperature =    300.000 K
Fermi level =  -0.010297 Hartree
HOMO-LUMO gap =   0.023379 Hartree
Number of active orbitals = 18
Number of active electrons = 9
EMax =   3.46e-02
thresh =   1.00e-06
Generating Pseudo-Fermi distribution of occupation numbers.
--
# Rescaled active electrons =      9.000
Writing occupation numbers to disk ...
---- Fractional Occupation Number Information End ----


---- Fractional Occupation Number Information ----
Temperature =    300.000 K
Fermi level =  -0.054420 Hartree
HOMO-LUMO gap =   0.147098 Hartree
Number of active orbitals = 18
Number of active electrons = 9
EMax =   3.46e-02
thresh =   1.00e-06
Generating Pseudo-Fermi distribution of occupation numbers.
--
# Rescaled active electrons =      9.000
Writing occupation numbers to disk ...
---- Fractional Occupation Number Information End ----

    4   -1104.4748601333      3.46E-02

---- Fractional Occupation Number Information ----
Temperature =    300.000 K
Fermi level =   0.087690 Hartree
HOMO-LUMO gap =   0.001782 Hartree
Number of active orbitals = 18
Number of active electrons = 9
EMax =   1.90e-01
thresh =   1.00e-06
Generating Pseudo-Fermi distribution of occupation numbers.
--
# Rescaled active electrons =      9.000
Writing occupation numbers to disk ...
---- Fractional Occupation Number Information End ----


---- Fractional Occupation Number Information ----
Temperature =    300.000 K
Fermi level =   0.051180 Hartree
HOMO-LUMO gap =   0.078927 Hartree
Number of active orbitals = 18
Number of active electrons = 9
EMax =   1.90e-01
thresh =   1.00e-06
Generating Pseudo-Fermi distribution of occupation numbers.
--
# Rescaled active electrons =      9.000
Writing occupation numbers to disk ...
---- Fractional Occupation Number Information End ----

    5   -1114.3769025711      1.90E-01

---- Fractional Occupation Number Information ----
Temperature =    300.000 K
Fermi level =   0.042757 Hartree
HOMO-LUMO gap =   0.003234 Hartree
Number of active orbitals = 18
Number of active electrons = 9
EMax =   1.04e-02
thresh =   1.00e-06
Generating Pseudo-Fermi distribution of occupation numbers.
--
# Rescaled active electrons =      9.000
Writing occupation numbers to disk ...
---- Fractional Occupation Number Information End ----


---- Fractional Occupation Number Information ----
Temperature =    300.000 K
Fermi level =  -0.038291 Hartree
HOMO-LUMO gap =   0.169544 Hartree
Number of active orbitals = 18
Number of active electrons = 9
EMax =   1.04e-02
thresh =   1.00e-06
Generating Pseudo-Fermi distribution of occupation numbers.
--
# Rescaled active electrons =      9.000
Writing occupation numbers to disk ...
---- Fractional Occupation Number Information End ----

    6   -1103.5849661671      1.04E-02

---- Fractional Occupation Number Information ----
Temperature =    300.000 K
Fermi level =   0.087496 Hartree
HOMO-LUMO gap =   0.016984 Hartree
Number of active orbitals = 18
Number of active electrons = 9
EMax =   2.21e-02
thresh =   1.00e-06
Generating Pseudo-Fermi distribution of occupation numbers.
--
# Rescaled active electrons =      9.000
Writing occupation numbers to disk ...
---- Fractional Occupation Number Information End ----


---- Fractional Occupation Number Information ----
Temperature =    300.000 K
Fermi level =   0.006930 Hartree
HOMO-LUMO gap =   0.179251 Hartree
Number of active orbitals = 18
Number of active electrons = 9
EMax =   2.21e-02
thresh =   1.00e-06
Generating Pseudo-Fermi distribution of occupation numbers.
--
# Rescaled active electrons =      9.000
Writing occupation numbers to disk ...
---- Fractional Occupation Number Information End ----

    7   -1103.1216190921      2.21E-02

---- Fractional Occupation Number Information ----
Temperature =    300.000 K
Fermi level =   0.099339 Hartree
HOMO-LUMO gap =   0.019053 Hartree
Number of active orbitals = 18
Number of active electrons = 9
EMax =   1.78e-02
thresh =   1.00e-06
Generating Pseudo-Fermi distribution of occupation numbers.
--
# Rescaled active electrons =      9.000
Writing occupation numbers to disk ...
---- Fractional Occupation Number Information End ----


---- Fractional Occupation Number Information ----
Temperature =    300.000 K
Fermi level =   0.027177 Hartree
HOMO-LUMO gap =   0.169605 Hartree
Number of active orbitals = 18
Number of active electrons = 9
EMax =   1.78e-02
thresh =   1.00e-06
Generating Pseudo-Fermi distribution of occupation numbers.
--
# Rescaled active electrons =      9.000
Writing occupation numbers to disk ...
---- Fractional Occupation Number Information End ----

    8   -1103.9042646922      1.78E-02

---- Fractional Occupation Number Information ----
Temperature =    300.000 K
Fermi level =   0.099436 Hartree
HOMO-LUMO gap =   0.024215 Hartree
Number of active orbitals = 18
Number of active electrons = 9
EMax =   1.59e-02
thresh =   1.00e-06
Generating Pseudo-Fermi distribution of occupation numbers.
--
# Rescaled active electrons =      9.000
Writing occupation numbers to disk ...
---- Fractional Occupation Number Information End ----


---- Fractional Occupation Number Information ----
Temperature =    300.000 K
Fermi level =   0.028629 Hartree
HOMO-LUMO gap =   0.166064 Hartree
Number of active orbitals = 18
Number of active electrons = 9
EMax =   1.59e-02
thresh =   1.00e-06
Generating Pseudo-Fermi distribution of occupation numbers.
--
# Rescaled active electrons =      9.000
Writing occupation numbers to disk ...
---- Fractional Occupation Number Information End ----

    9   -1104.0942757045      1.59E-02

---- Fractional Occupation Number Information ----
Temperature =    300.000 K
Fermi level =   0.094611 Hartree
HOMO-LUMO gap =   0.030654 Hartree
Number of active orbitals = 18
Number of active electrons = 9
EMax =   1.40e-02
thresh =   1.00e-06
Generating Pseudo-Fermi distribution of occupation numbers.
--
# Rescaled active electrons =      9.000
Writing occupation numbers to disk ...
---- Fractional Occupation Number Information End ----


---- Fractional Occupation Number Information ----
Temperature =    300.000 K
Fermi level =   0.023324 Hartree
HOMO-LUMO gap =   0.172818 Hartree
Number of active orbitals = 18
Number of active electrons = 9
EMax =   1.40e-02
thresh =   1.00e-06
Generating Pseudo-Fermi distribution of occupation numbers.
--
# Rescaled active electrons =      9.000
Writing occupation numbers to disk ...
---- Fractional Occupation Number Information End ----

   10   -1104.2692235914      1.40E-02

---- Fractional Occupation Number Information ----
Temperature =    300.000 K
Fermi level =   0.091700 Hartree
HOMO-LUMO gap =   0.032976 Hartree
Number of active orbitals = 18
Number of active electrons = 9
EMax =   1.17e-02
thresh =   1.00e-06
Generating Pseudo-Fermi distribution of occupation numbers.
--
# Rescaled active electrons =      9.000
Writing occupation numbers to disk ...
---- Fractional Occupation Number Information End ----


---- Fractional Occupation Number Information ----
Temperature =    300.000 K
Fermi level =   0.021466 Hartree
HOMO-LUMO gap =   0.172259 Hartree
Number of active orbitals = 18
Number of active electrons = 9
EMax =   1.17e-02
thresh =   1.00e-06
Generating Pseudo-Fermi distribution of occupation numbers.
--
# Rescaled active electrons =      9.000
Writing occupation numbers to disk ...
---- Fractional Occupation Number Information End ----

   11   -1104.4341979984      1.17E-02

---- Fractional Occupation Number Information ----
Temperature =    300.000 K
Fermi level =   0.086866 Hartree
HOMO-LUMO gap =   0.034426 Hartree
Number of active orbitals = 18
Number of active electrons = 9
EMax =   7.29e-03
thresh =   1.00e-06
Generating Pseudo-Fermi distribution of occupation numbers.
--
# Rescaled active electrons =      9.000
Writing occupation numbers to disk ...
---- Fractional Occupation Number Information End ----


---- Fractional Occupation Number Information ----
Temperature =    300.000 K
Fermi level =   0.018058 Hartree
HOMO-LUMO gap =   0.171597 Hartree
Number of active orbitals = 18
Number of active electrons = 9
EMax =   7.29e-03
thresh =   1.00e-06
Generating Pseudo-Fermi distribution of occupation numbers.
--
# Rescaled active electrons =      9.000
Writing occupation numbers to disk ...
---- Fractional Occupation Number Information End ----

   12   -1104.6686946271      7.29E-03

---- Fractional Occupation Number Information ----
Temperature =    300.000 K
Fermi level =   0.087320 Hartree
HOMO-LUMO gap =   0.037047 Hartree
Number of active orbitals = 18
Number of active electrons = 9
EMax =   1.47e-03
thresh =   1.00e-06
Generating Pseudo-Fermi distribution of occupation numbers.
--
# Rescaled active electrons =      9.000
Writing occupation numbers to disk ...
---- Fractional Occupation Number Information End ----


---- Fractional Occupation Number Information ----
Temperature =    300.000 K
Fermi level =   0.021771 Hartree
HOMO-LUMO gap =   0.166485 Hartree
Number of active orbitals = 18
Number of active electrons = 9
EMax =   1.47e-03
thresh =   1.00e-06
Generating Pseudo-Fermi distribution of occupation numbers.
--
# Rescaled active electrons =      9.000
Writing occupation numbers to disk ...
---- Fractional Occupation Number Information End ----

   13   -1104.8098719341      1.47E-03

---- Fractional Occupation Number Information ----
Temperature =    300.000 K
Fermi level =   0.086998 Hartree
HOMO-LUMO gap =   0.037603 Hartree
Number of active orbitals = 18
Number of active electrons = 9
EMax =   8.49e-04
thresh =   1.00e-06
Generating Pseudo-Fermi distribution of occupation numbers.
--
# Rescaled active electrons =      9.000
Writing occupation numbers to disk ...
---- Fractional Occupation Number Information End ----


---- Fractional Occupation Number Information ----
Temperature =    300.000 K
Fermi level =   0.022070 Hartree
HOMO-LUMO gap =   0.165082 Hartree
Number of active orbitals = 18
Number of active electrons = 9
EMax =   8.49e-04
thresh =   1.00e-06
Generating Pseudo-Fermi distribution of occupation numbers.
--
# Rescaled active electrons =      9.000
Writing occupation numbers to disk ...
---- Fractional Occupation Number Information End ----

   14   -1104.8174994118      8.49E-04

---- Fractional Occupation Number Information ----
Temperature =    300.000 K
Fermi level =   0.085148 Hartree
HOMO-LUMO gap =   0.035220 Hartree
Number of active orbitals = 18
Number of active electrons = 9
EMax =   5.77e-04
thresh =   1.00e-06
Generating Pseudo-Fermi distribution of occupation numbers.
--
# Rescaled active electrons =      9.000
Writing occupation numbers to disk ...
---- Fractional Occupation Number Information End ----


---- Fractional Occupation Number Information ----
Temperature =    300.000 K
Fermi level =   0.020860 Hartree
HOMO-LUMO gap =   0.161504 Hartree
Number of active orbitals = 18
Number of active electrons = 9
EMax =   5.77e-04
thresh =   1.00e-06
Generating Pseudo-Fermi distribution of occupation numbers.
--
# Rescaled active electrons =      9.000
Writing occupation numbers to disk ...
---- Fractional Occupation Number Information End ----

   15   -1104.8191093004      5.77E-04

---- Fractional Occupation Number Information ----
Temperature =    300.000 K
Fermi level =   0.081998 Hartree
HOMO-LUMO gap =   0.029518 Hartree
Number of active orbitals = 18
Number of active electrons = 9
EMax =   2.20e-04
thresh =   1.00e-06
Generating Pseudo-Fermi distribution of occupation numbers.
--
# Rescaled active electrons =      9.000
Writing occupation numbers to disk ...
---- Fractional Occupation Number Information End ----


---- Fractional Occupation Number Information ----
Temperature =    300.000 K
Fermi level =   0.018062 Hartree
HOMO-LUMO gap =   0.155255 Hartree
Number of active orbitals = 18
Number of active electrons = 9
EMax =   2.20e-04
thresh =   1.00e-06
Generating Pseudo-Fermi distribution of occupation numbers.
--
# Rescaled active electrons =      9.000
Writing occupation numbers to disk ...
---- Fractional Occupation Number Information End ----

   16   -1104.8197019322      2.20E-04

---- Fractional Occupation Number Information ----
Temperature =    300.000 K
Fermi level =   0.080641 Hartree
HOMO-LUMO gap =   0.027233 Hartree
Number of active orbitals = 18
Number of active electrons = 9
EMax =   6.55e-05
thresh =   1.00e-06
Generating Pseudo-Fermi distribution of occupation numbers.
--
# Rescaled active electrons =      9.000
Writing occupation numbers to disk ...
---- Fractional Occupation Number Information End ----


---- Fractional Occupation Number Information ----
Temperature =    300.000 K
Fermi level =   0.016520 Hartree
HOMO-LUMO gap =   0.152968 Hartree
Number of active orbitals = 18
Number of active electrons = 9
EMax =   6.55e-05
thresh =   1.00e-06
Generating Pseudo-Fermi distribution of occupation numbers.
--
# Rescaled active electrons =      9.000
Writing occupation numbers to disk ...
---- Fractional Occupation Number Information End ----

   17   -1104.8197237965      6.55E-05

---- Fractional Occupation Number Information ----
Temperature =    300.000 K
Fermi level =   0.080047 Hartree
HOMO-LUMO gap =   0.026670 Hartree
Number of active orbitals = 18
Number of active electrons = 9
EMax =   1.75e-05
thresh =   1.00e-06
Generating Pseudo-Fermi distribution of occupation numbers.
--
# Rescaled active electrons =      9.000
Writing occupation numbers to disk ...
---- Fractional Occupation Number Information End ----


---- Fractional Occupation Number Information ----
Temperature =    300.000 K
Fermi level =   0.015723 Hartree
HOMO-LUMO gap =   0.152555 Hartree
Number of active orbitals = 18
Number of active electrons = 9
EMax =   1.75e-05
thresh =   1.00e-06
Generating Pseudo-Fermi distribution of occupation numbers.
--
# Rescaled active electrons =      9.000
Writing occupation numbers to disk ...
---- Fractional Occupation Number Information End ----

   18   -1104.8200013845      1.75E-05

---- Fractional Occupation Number Information ----
Temperature =    300.000 K
Fermi level =   0.080240 Hartree
HOMO-LUMO gap =   0.027461 Hartree
Number of active orbitals = 18
Number of active electrons = 9
EMax =   2.75e-05
thresh =   1.00e-06
Generating Pseudo-Fermi distribution of occupation numbers.
--
# Rescaled active electrons =      9.000
Writing occupation numbers to disk ...
---- Fractional Occupation Number Information End ----


---- Fractional Occupation Number Information ----
Temperature =    300.000 K
Fermi level =   0.015861 Hartree
HOMO-LUMO gap =   0.153666 Hartree
Number of active orbitals = 18
Number of active electrons = 9
EMax =   2.75e-05
thresh =   1.00e-06
Generating Pseudo-Fermi distribution of occupation numbers.
--
# Rescaled active electrons =      9.000
Writing occupation numbers to disk ...
---- Fractional Occupation Number Information End ----

   19   -1104.8202925408      2.75E-05

---- Fractional Occupation Number Information ----
Temperature =    300.000 K
Fermi level =   0.080267 Hartree
HOMO-LUMO gap =   0.028396 Hartree
Number of active orbitals = 18
Number of active electrons = 9
EMax =   1.92e-05
thresh =   1.00e-06
Generating Pseudo-Fermi distribution of occupation numbers.
--
# Rescaled active electrons =      9.000
Writing occupation numbers to disk ...
---- Fractional Occupation Number Information End ----


---- Fractional Occupation Number Information ----
Temperature =    300.000 K
Fermi level =   0.015660 Hartree
HOMO-LUMO gap =   0.155036 Hartree
Number of active orbitals = 18
Number of active electrons = 9
EMax =   1.92e-05
thresh =   1.00e-06
Generating Pseudo-Fermi distribution of occupation numbers.
--
# Rescaled active electrons =      9.000
Writing occupation numbers to disk ...
---- Fractional Occupation Number Information End ----

   20   -1104.8202675853      1.92E-05

---- Fractional Occupation Number Information ----
Temperature =    300.000 K
Fermi level =   0.080131 Hartree
HOMO-LUMO gap =   0.028312 Hartree
Number of active orbitals = 18
Number of active electrons = 9
EMax =   1.54e-05
thresh =   1.00e-06
Generating Pseudo-Fermi distribution of occupation numbers.
--
# Rescaled active electrons =      9.000
Writing occupation numbers to disk ...
---- Fractional Occupation Number Information End ----


---- Fractional Occupation Number Information ----
Temperature =    300.000 K
Fermi level =   0.015453 Hartree
HOMO-LUMO gap =   0.154954 Hartree
Number of active orbitals = 18
Number of active electrons = 9
EMax =   1.54e-05
thresh =   1.00e-06
Generating Pseudo-Fermi distribution of occupation numbers.
--
# Rescaled active electrons =      9.000
Writing occupation numbers to disk ...
---- Fractional Occupation Number Information End ----

   21   -1104.8202674833      1.54E-05

---- Fractional Occupation Number Information ----
Temperature =    300.000 K
Fermi level =   0.079572 Hartree
HOMO-LUMO gap =   0.028396 Hartree
Number of active orbitals = 18
Number of active electrons = 9
EMax =   1.02e-05
thresh =   1.00e-06
Generating Pseudo-Fermi distribution of occupation numbers.
--
# Rescaled active electrons =      9.000
Writing occupation numbers to disk ...
---- Fractional Occupation Number Information End ----


---- Fractional Occupation Number Information ----
Temperature =    300.000 K
Fermi level =   0.014604 Hartree
HOMO-LUMO gap =   0.155349 Hartree
Number of active orbitals = 18
Number of active electrons = 9
EMax =   1.02e-05
thresh =   1.00e-06
Generating Pseudo-Fermi distribution of occupation numbers.
--
# Rescaled active electrons =      9.000
Writing occupation numbers to disk ...
---- Fractional Occupation Number Information End ----

   22   -1104.8202670583      1.02E-05

---- Fractional Occupation Number Information ----
Temperature =    300.000 K
Fermi level =   0.079876 Hartree
HOMO-LUMO gap =   0.028977 Hartree
Number of active orbitals = 18
Number of active electrons = 9
EMax =   5.69e-05
thresh =   1.00e-06
Generating Pseudo-Fermi distribution of occupation numbers.
--
# Rescaled active electrons =      9.000
Writing occupation numbers to disk ...
---- Fractional Occupation Number Information End ----


---- Fractional Occupation Number Information ----
Temperature =    300.000 K
Fermi level =   0.014925 Hartree
HOMO-LUMO gap =   0.156021 Hartree
Number of active orbitals = 18
Number of active electrons = 9
EMax =   5.69e-05
thresh =   1.00e-06
Generating Pseudo-Fermi distribution of occupation numbers.
--
# Rescaled active electrons =      9.000
Writing occupation numbers to disk ...
---- Fractional Occupation Number Information End ----

   23   -1104.8201804382      5.69E-05

---- Fractional Occupation Number Information ----
Temperature =    300.000 K
Fermi level =   0.080167 Hartree
HOMO-LUMO gap =   0.029135 Hartree
Number of active orbitals = 18
Number of active electrons = 9
EMax =   6.94e-05
thresh =   1.00e-06
Generating Pseudo-Fermi distribution of occupation numbers.
--
# Rescaled active electrons =      9.000
Writing occupation numbers to disk ...
---- Fractional Occupation Number Information End ----


---- Fractional Occupation Number Information ----
Temperature =    300.000 K
Fermi level =   0.015334 Hartree
HOMO-LUMO gap =   0.156135 Hartree
Number of active orbitals = 18
Number of active electrons = 9
EMax =   6.94e-05
thresh =   1.00e-06
Generating Pseudo-Fermi distribution of occupation numbers.
--
# Rescaled active electrons =      9.000
Writing occupation numbers to disk ...
---- Fractional Occupation Number Information End ----

   24   -1104.8201061994      6.94E-05

---- Fractional Occupation Number Information ----
Temperature =    300.000 K
Fermi level =   0.080212 Hartree
HOMO-LUMO gap =   0.029178 Hartree
Number of active orbitals = 18
Number of active electrons = 9
EMax =   6.34e-05
thresh =   1.00e-06
Generating Pseudo-Fermi distribution of occupation numbers.
--
# Rescaled active electrons =      9.000
Writing occupation numbers to disk ...
---- Fractional Occupation Number Information End ----


---- Fractional Occupation Number Information ----
Temperature =    300.000 K
Fermi level =   0.015387 Hartree
HOMO-LUMO gap =   0.156174 Hartree
Number of active orbitals = 18
Number of active electrons = 9
EMax =   6.34e-05
thresh =   1.00e-06
Generating Pseudo-Fermi distribution of occupation numbers.
--
# Rescaled active electrons =      9.000
Writing occupation numbers to disk ...
---- Fractional Occupation Number Information End ----

   25   -1104.8200451285      6.34E-05

---- Fractional Occupation Number Information ----
Temperature =    300.000 K
Fermi level =   0.080210 Hartree
HOMO-LUMO gap =   0.029198 Hartree
Number of active orbitals = 18
Number of active electrons = 9
EMax =   5.93e-05
thresh =   1.00e-06
Generating Pseudo-Fermi distribution of occupation numbers.
--
# Rescaled active electrons =      9.000
Writing occupation numbers to disk ...
---- Fractional Occupation Number Information End ----


---- Fractional Occupation Number Information ----
Temperature =    300.000 K
Fermi level =   0.015380 Hartree
HOMO-LUMO gap =   0.156203 Hartree
Number of active orbitals = 18
Number of active electrons = 9
EMax =   5.93e-05
thresh =   1.00e-06
Generating Pseudo-Fermi distribution of occupation numbers.
--
# Rescaled active electrons =      9.000
Writing occupation numbers to disk ...
---- Fractional Occupation Number Information End ----

   26   -1104.8200320764      5.93E-05

---- Fractional Occupation Number Information ----
Temperature =    300.000 K
Fermi level =   0.080288 Hartree
HOMO-LUMO gap =   0.029179 Hartree
Number of active orbitals = 18
Number of active electrons = 9
EMax =   6.82e-05
thresh =   1.00e-06
Generating Pseudo-Fermi distribution of occupation numbers.
--
# Rescaled active electrons =      9.000
Writing occupation numbers to disk ...
---- Fractional Occupation Number Information End ----


---- Fractional Occupation Number Information ----
Temperature =    300.000 K
Fermi level =   0.015520 Hartree
HOMO-LUMO gap =   0.156112 Hartree
Number of active orbitals = 18
Number of active electrons = 9
EMax =   6.82e-05
thresh =   1.00e-06
Generating Pseudo-Fermi distribution of occupation numbers.
--
# Rescaled active electrons =      9.000
Writing occupation numbers to disk ...
---- Fractional Occupation Number Information End ----

   27   -1104.8200579194      6.82E-05

---- Fractional Occupation Number Information ----
Temperature =    300.000 K
Fermi level =   0.080340 Hartree
HOMO-LUMO gap =   0.029225 Hartree
Number of active orbitals = 18
Number of active electrons = 9
EMax =   6.63e-05
thresh =   1.00e-06
Generating Pseudo-Fermi distribution of occupation numbers.
--
# Rescaled active electrons =      9.000
Writing occupation numbers to disk ...
---- Fractional Occupation Number Information End ----


---- Fractional Occupation Number Information ----
Temperature =    300.000 K
Fermi level =   0.015589 Hartree
HOMO-LUMO gap =   0.156160 Hartree
Number of active orbitals = 18
Number of active electrons = 9
EMax =   6.63e-05
thresh =   1.00e-06
Generating Pseudo-Fermi distribution of occupation numbers.
--
# Rescaled active electrons =      9.000
Writing occupation numbers to disk ...
---- Fractional Occupation Number Information End ----

   28   -1104.8201054784      6.63E-05

---- Fractional Occupation Number Information ----
Temperature =    300.000 K
Fermi level =   0.080144 Hartree
HOMO-LUMO gap =   0.029135 Hartree
Number of active orbitals = 18
Number of active electrons = 9
EMax =   6.84e-05
thresh =   1.00e-06
Generating Pseudo-Fermi distribution of occupation numbers.
--
# Rescaled active electrons =      9.000
Writing occupation numbers to disk ...
---- Fractional Occupation Number Information End ----


---- Fractional Occupation Number Information ----
Temperature =    300.000 K
Fermi level =   0.015261 Hartree
HOMO-LUMO gap =   0.156123 Hartree
Number of active orbitals = 18
Number of active electrons = 9
EMax =   6.84e-05
thresh =   1.00e-06
Generating Pseudo-Fermi distribution of occupation numbers.
--
# Rescaled active electrons =      9.000
Writing occupation numbers to disk ...
---- Fractional Occupation Number Information End ----

   29   -1104.8200957973      6.84E-05

---- Fractional Occupation Number Information ----
Temperature =    300.000 K
Fermi level =   0.079858 Hartree
HOMO-LUMO gap =   0.028983 Hartree
Number of active orbitals = 18
Number of active electrons = 9
EMax =   6.24e-05
thresh =   1.00e-06
Generating Pseudo-Fermi distribution of occupation numbers.
--
# Rescaled active electrons =      9.000
Writing occupation numbers to disk ...
---- Fractional Occupation Number Information End ----


---- Fractional Occupation Number Information ----
Temperature =    300.000 K
Fermi level =   0.014838 Hartree
HOMO-LUMO gap =   0.155998 Hartree
Number of active orbitals = 18
Number of active electrons = 9
EMax =   6.24e-05
thresh =   1.00e-06
Generating Pseudo-Fermi distribution of occupation numbers.
--
# Rescaled active electrons =      9.000
Writing occupation numbers to disk ...
---- Fractional Occupation Number Information End ----

   30   -1104.8201132617      6.24E-05

---- Fractional Occupation Number Information ----
Temperature =    300.000 K
Fermi level =   0.079876 Hartree
HOMO-LUMO gap =   0.028954 Hartree
Number of active orbitals = 18
Number of active electrons = 9
EMax =   5.27e-05
thresh =   1.00e-06
Generating Pseudo-Fermi distribution of occupation numbers.
--
# Rescaled active electrons =      9.000
Writing occupation numbers to disk ...
---- Fractional Occupation Number Information End ----


---- Fractional Occupation Number Information ----
Temperature =    300.000 K
Fermi level =   0.014871 Hartree
HOMO-LUMO gap =   0.155950 Hartree
Number of active orbitals = 18
Number of active electrons = 9
EMax =   5.27e-05
thresh =   1.00e-06
Generating Pseudo-Fermi distribution of occupation numbers.
--
# Rescaled active electrons =      9.000
Writing occupation numbers to disk ...
---- Fractional Occupation Number Information End ----

   31   -1104.8202400824      5.27E-05

---- Fractional Occupation Number Information ----
Temperature =    300.000 K
Fermi level =   0.079835 Hartree
HOMO-LUMO gap =   0.028967 Hartree
Number of active orbitals = 18
Number of active electrons = 9
EMax =   5.34e-05
thresh =   1.00e-06
Generating Pseudo-Fermi distribution of occupation numbers.
--
# Rescaled active electrons =      9.000
Writing occupation numbers to disk ...
---- Fractional Occupation Number Information End ----


---- Fractional Occupation Number Information ----
Temperature =    300.000 K
Fermi level =   0.014816 Hartree
HOMO-LUMO gap =   0.155990 Hartree
Number of active orbitals = 18
Number of active electrons = 9
EMax =   5.34e-05
thresh =   1.00e-06
Generating Pseudo-Fermi distribution of occupation numbers.
--
# Rescaled active electrons =      9.000
Writing occupation numbers to disk ...
---- Fractional Occupation Number Information End ----

   32   -1104.8204214968      5.34E-05

---- Fractional Occupation Number Information ----
Temperature =    300.000 K
Fermi level =   0.079924 Hartree
HOMO-LUMO gap =   0.029042 Hartree
Number of active orbitals = 18
Number of active electrons = 9
EMax =   5.52e-05
thresh =   1.00e-06
Generating Pseudo-Fermi distribution of occupation numbers.
--
# Rescaled active electrons =      9.000
Writing occupation numbers to disk ...
---- Fractional Occupation Number Information End ----


---- Fractional Occupation Number Information ----
Temperature =    300.000 K
Fermi level =   0.014932 Hartree
HOMO-LUMO gap =   0.156195 Hartree
Number of active orbitals = 18
Number of active electrons = 9
EMax =   5.52e-05
thresh =   1.00e-06
Generating Pseudo-Fermi distribution of occupation numbers.
--
# Rescaled active electrons =      9.000
Writing occupation numbers to disk ...
---- Fractional Occupation Number Information End ----

   33   -1104.8209734782      5.52E-05

---- Fractional Occupation Number Information ----
Temperature =    300.000 K
Fermi level =   0.079935 Hartree
HOMO-LUMO gap =   0.028964 Hartree
Number of active orbitals = 18
Number of active electrons = 9
EMax =   8.74e-05
thresh =   1.00e-06
Generating Pseudo-Fermi distribution of occupation numbers.
--
# Rescaled active electrons =      9.000
Writing occupation numbers to disk ...
---- Fractional Occupation Number Information End ----


---- Fractional Occupation Number Information ----
Temperature =    300.000 K
Fermi level =   0.014982 Hartree
HOMO-LUMO gap =   0.156137 Hartree
Number of active orbitals = 18
Number of active electrons = 9
EMax =   8.74e-05
thresh =   1.00e-06
Generating Pseudo-Fermi distribution of occupation numbers.
--
# Rescaled active electrons =      9.000
Writing occupation numbers to disk ...
---- Fractional Occupation Number Information End ----

   34   -1104.8196406549      8.74E-05

---- Fractional Occupation Number Information ----
Temperature =    300.000 K
Fermi level =   0.080076 Hartree
HOMO-LUMO gap =   0.029018 Hartree
Number of active orbitals = 18
Number of active electrons = 9
EMax =   1.10e-04
thresh =   1.00e-06
Generating Pseudo-Fermi distribution of occupation numbers.
--
# Rescaled active electrons =      9.000
Writing occupation numbers to disk ...
---- Fractional Occupation Number Information End ----


---- Fractional Occupation Number Information ----
Temperature =    300.000 K
Fermi level =   0.015174 Hartree
HOMO-LUMO gap =   0.156191 Hartree
Number of active orbitals = 18
Number of active electrons = 9
EMax =   1.10e-04
thresh =   1.00e-06
Generating Pseudo-Fermi distribution of occupation numbers.
--
# Rescaled active electrons =      9.000
Writing occupation numbers to disk ...
---- Fractional Occupation Number Information End ----

   35   -1104.8193381386      1.10E-04

---- Fractional Occupation Number Information ----
Temperature =    300.000 K
Fermi level =   0.079909 Hartree
HOMO-LUMO gap =   0.028832 Hartree
Number of active orbitals = 18
Number of active electrons = 9
EMax =   1.07e-04
thresh =   1.00e-06
Generating Pseudo-Fermi distribution of occupation numbers.
--
# Rescaled active electrons =      9.000
Writing occupation numbers to disk ...
---- Fractional Occupation Number Information End ----


---- Fractional Occupation Number Information ----
Temperature =    300.000 K
Fermi level =   0.014966 Hartree
HOMO-LUMO gap =   0.156007 Hartree
Number of active orbitals = 18
Number of active electrons = 9
EMax =   1.07e-04
thresh =   1.00e-06
Generating Pseudo-Fermi distribution of occupation numbers.
--
# Rescaled active electrons =      9.000
Writing occupation numbers to disk ...
---- Fractional Occupation Number Information End ----

   36   -1104.8188930020      1.07E-04

---- Fractional Occupation Number Information ----
Temperature =    300.000 K
Fermi level =   0.079789 Hartree
HOMO-LUMO gap =   0.028791 Hartree
Number of active orbitals = 18
Number of active electrons = 9
EMax =   8.72e-05
thresh =   1.00e-06
Generating Pseudo-Fermi distribution of occupation numbers.
--
# Rescaled active electrons =      9.000
Writing occupation numbers to disk ...
---- Fractional Occupation Number Information End ----


---- Fractional Occupation Number Information ----
Temperature =    300.000 K
Fermi level =   0.014784 Hartree
HOMO-LUMO gap =   0.155996 Hartree
Number of active orbitals = 18
Number of active electrons = 9
EMax =   8.72e-05
thresh =   1.00e-06
Generating Pseudo-Fermi distribution of occupation numbers.
--
# Rescaled active electrons =      9.000
Writing occupation numbers to disk ...
---- Fractional Occupation Number Information End ----

   37   -1104.8194043754      8.72E-05

---- Fractional Occupation Number Information ----
Temperature =    300.000 K
Fermi level =   0.079750 Hartree
HOMO-LUMO gap =   0.028730 Hartree
Number of active orbitals = 18
Number of active electrons = 9
EMax =   4.66e-05
thresh =   1.00e-06
Generating Pseudo-Fermi distribution of occupation numbers.
--
# Rescaled active electrons =      9.000
Writing occupation numbers to disk ...
---- Fractional Occupation Number Information End ----


---- Fractional Occupation Number Information ----
Temperature =    300.000 K
Fermi level =   0.014740 Hartree
HOMO-LUMO gap =   0.155922 Hartree
Number of active orbitals = 18
Number of active electrons = 9
EMax =   4.66e-05
thresh =   1.00e-06
Generating Pseudo-Fermi distribution of occupation numbers.
--
# Rescaled active electrons =      9.000
Writing occupation numbers to disk ...
---- Fractional Occupation Number Information End ----

   38   -1104.8199819348      4.66E-05

---- Fractional Occupation Number Information ----
Temperature =    300.000 K
Fermi level =   0.079750 Hartree
HOMO-LUMO gap =   0.028768 Hartree
Number of active orbitals = 18
Number of active electrons = 9
EMax =   4.66e-05
thresh =   1.00e-06
Generating Pseudo-Fermi distribution of occupation numbers.
--
# Rescaled active electrons =      9.000
Writing occupation numbers to disk ...
---- Fractional Occupation Number Information End ----


---- Fractional Occupation Number Information ----
Temperature =    300.000 K
Fermi level =   0.014710 Hartree
HOMO-LUMO gap =   0.155964 Hartree
Number of active orbitals = 18
Number of active electrons = 9
EMax =   4.66e-05
thresh =   1.00e-06
Generating Pseudo-Fermi distribution of occupation numbers.
--
# Rescaled active electrons =      9.000
Writing occupation numbers to disk ...
---- Fractional Occupation Number Information End ----

   39   -1104.8201024261      4.66E-05

---- Fractional Occupation Number Information ----
Temperature =    300.000 K
Fermi level =   0.079827 Hartree
HOMO-LUMO gap =   0.028893 Hartree
Number of active orbitals = 18
Number of active electrons = 9
EMax =   6.46e-05
thresh =   1.00e-06
Generating Pseudo-Fermi distribution of occupation numbers.
--
# Rescaled active electrons =      9.000
Writing occupation numbers to disk ...
---- Fractional Occupation Number Information End ----


---- Fractional Occupation Number Information ----
Temperature =    300.000 K
Fermi level =   0.014769 Hartree
HOMO-LUMO gap =   0.156073 Hartree
Number of active orbitals = 18
Number of active electrons = 9
EMax =   6.46e-05
thresh =   1.00e-06
Generating Pseudo-Fermi distribution of occupation numbers.
--
# Rescaled active electrons =      9.000
Writing occupation numbers to disk ...
---- Fractional Occupation Number Information End ----

   40   -1104.8199939699      6.46E-05

---- Fractional Occupation Number Information ----
Temperature =    300.000 K
Fermi level =   0.079842 Hartree
HOMO-LUMO gap =   0.028940 Hartree
Number of active orbitals = 18
Number of active electrons = 9
EMax =   5.22e-05
thresh =   1.00e-06
Generating Pseudo-Fermi distribution of occupation numbers.
--
# Rescaled active electrons =      9.000
Writing occupation numbers to disk ...
---- Fractional Occupation Number Information End ----


---- Fractional Occupation Number Information ----
Temperature =    300.000 K
Fermi level =   0.014770 Hartree
HOMO-LUMO gap =   0.156131 Hartree
Number of active orbitals = 18
Number of active electrons = 9
EMax =   5.22e-05
thresh =   1.00e-06
Generating Pseudo-Fermi distribution of occupation numbers.
--
# Rescaled active electrons =      9.000
Writing occupation numbers to disk ...
---- Fractional Occupation Number Information End ----

   41   -1104.8198931748      5.22E-05

---- Fractional Occupation Number Information ----
Temperature =    300.000 K
Fermi level =   0.079763 Hartree
HOMO-LUMO gap =   0.028899 Hartree
Number of active orbitals = 18
Number of active electrons = 9
EMax =   4.35e-05
thresh =   1.00e-06
Generating Pseudo-Fermi distribution of occupation numbers.
--
# Rescaled active electrons =      9.000
Writing occupation numbers to disk ...
---- Fractional Occupation Number Information End ----


---- Fractional Occupation Number Information ----
Temperature =    300.000 K
Fermi level =   0.014653 Hartree
HOMO-LUMO gap =   0.156111 Hartree
Number of active orbitals = 18
Number of active electrons = 9
EMax =   4.35e-05
thresh =   1.00e-06
Generating Pseudo-Fermi distribution of occupation numbers.
--
# Rescaled active electrons =      9.000
Writing occupation numbers to disk ...
---- Fractional Occupation Number Information End ----

   42   -1104.8195455102      4.35E-05

---- Fractional Occupation Number Information ----
Temperature =    300.000 K
Fermi level =   0.079618 Hartree
HOMO-LUMO gap =   0.028724 Hartree
Number of active orbitals = 18
Number of active electrons = 9
EMax =   4.42e-05
thresh =   1.00e-06
Generating Pseudo-Fermi distribution of occupation numbers.
--
# Rescaled active electrons =      9.000
Writing occupation numbers to disk ...
---- Fractional Occupation Number Information End ----


---- Fractional Occupation Number Information ----
Temperature =    300.000 K
Fermi level =   0.014479 Hartree
HOMO-LUMO gap =   0.155920 Hartree
Number of active orbitals = 18
Number of active electrons = 9
EMax =   4.42e-05
thresh =   1.00e-06
Generating Pseudo-Fermi distribution of occupation numbers.
--
# Rescaled active electrons =      9.000
Writing occupation numbers to disk ...
---- Fractional Occupation Number Information End ----

   43   -1104.8192211067      4.42E-05

---- Fractional Occupation Number Information ----
Temperature =    300.000 K
Fermi level =   0.079588 Hartree
HOMO-LUMO gap =   0.028713 Hartree
Number of active orbitals = 18
Number of active electrons = 9
EMax =   3.64e-05
thresh =   1.00e-06
Generating Pseudo-Fermi distribution of occupation numbers.
--
# Rescaled active electrons =      9.000
Writing occupation numbers to disk ...
---- Fractional Occupation Number Information End ----


---- Fractional Occupation Number Information ----
Temperature =    300.000 K
Fermi level =   0.014445 Hartree
HOMO-LUMO gap =   0.155940 Hartree
Number of active orbitals = 18
Number of active electrons = 9
EMax =   3.64e-05
thresh =   1.00e-06
Generating Pseudo-Fermi distribution of occupation numbers.
--
# Rescaled active electrons =      9.000
Writing occupation numbers to disk ...
---- Fractional Occupation Number Information End ----

   44   -1104.8194526026      3.64E-05

---- Fractional Occupation Number Information ----
Temperature =    300.000 K
Fermi level =   0.079550 Hartree
HOMO-LUMO gap =   0.028688 Hartree
Number of active orbitals = 18
Number of active electrons = 9
EMax =   3.53e-05
thresh =   1.00e-06
Generating Pseudo-Fermi distribution of occupation numbers.
--
# Rescaled active electrons =      9.000
Writing occupation numbers to disk ...
---- Fractional Occupation Number Information End ----


---- Fractional Occupation Number Information ----
Temperature =    300.000 K
Fermi level =   0.014402 Hartree
HOMO-LUMO gap =   0.155940 Hartree
Number of active orbitals = 18
Number of active electrons = 9
EMax =   3.53e-05
thresh =   1.00e-06
Generating Pseudo-Fermi distribution of occupation numbers.
--
# Rescaled active electrons =      9.000
Writing occupation numbers to disk ...
---- Fractional Occupation Number Information End ----

   45   -1104.8193118742      3.53E-05

---- Fractional Occupation Number Information ----
Temperature =    300.000 K
Fermi level =   0.079534 Hartree
HOMO-LUMO gap =   0.028617 Hartree
Number of active orbitals = 18
Number of active electrons = 9
EMax =   4.14e-05
thresh =   1.00e-06
Generating Pseudo-Fermi distribution of occupation numbers.
--
# Rescaled active electrons =      9.000
Writing occupation numbers to disk ...
---- Fractional Occupation Number Information End ----


---- Fractional Occupation Number Information ----
Temperature =    300.000 K
Fermi level =   0.014393 Hartree
HOMO-LUMO gap =   0.155842 Hartree
Number of active orbitals = 18
Number of active electrons = 9
EMax =   4.14e-05
thresh =   1.00e-06
Generating Pseudo-Fermi distribution of occupation numbers.
--
# Rescaled active electrons =      9.000
Writing occupation numbers to disk ...
---- Fractional Occupation Number Information End ----

   46   -1104.8193331560      4.14E-05

---- Fractional Occupation Number Information ----
Temperature =    300.000 K
Fermi level =   0.079559 Hartree
HOMO-LUMO gap =   0.028633 Hartree
Number of active orbitals = 18
Number of active electrons = 9
EMax =   4.17e-05
thresh =   1.00e-06
Generating Pseudo-Fermi distribution of occupation numbers.
--
# Rescaled active electrons =      9.000
Writing occupation numbers to disk ...
---- Fractional Occupation Number Information End ----


---- Fractional Occupation Number Information ----
Temperature =    300.000 K
Fermi level =   0.014427 Hartree
HOMO-LUMO gap =   0.155856 Hartree
Number of active orbitals = 18
Number of active electrons = 9
EMax =   4.17e-05
thresh =   1.00e-06
Generating Pseudo-Fermi distribution of occupation numbers.
--
# Rescaled active electrons =      9.000
Writing occupation numbers to disk ...
---- Fractional Occupation Number Information End ----

   47   -1104.8198958014      4.17E-05

---- Fractional Occupation Number Information ----
Temperature =    300.000 K
Fermi level =   0.079531 Hartree
HOMO-LUMO gap =   0.028616 Hartree
Number of active orbitals = 18
Number of active electrons = 9
EMax =   3.80e-05
thresh =   1.00e-06
Generating Pseudo-Fermi distribution of occupation numbers.
--
# Rescaled active electrons =      9.000
Writing occupation numbers to disk ...
---- Fractional Occupation Number Information End ----


---- Fractional Occupation Number Information ----
Temperature =    300.000 K
Fermi level =   0.014390 Hartree
HOMO-LUMO gap =   0.155850 Hartree
Number of active orbitals = 18
Number of active electrons = 9
EMax =   3.80e-05
thresh =   1.00e-06
Generating Pseudo-Fermi distribution of occupation numbers.
--
# Rescaled active electrons =      9.000
Writing occupation numbers to disk ...
---- Fractional Occupation Number Information End ----

   48   -1104.8199434753      3.80E-05

---- Fractional Occupation Number Information ----
Temperature =    300.000 K
Fermi level =   0.079505 Hartree
HOMO-LUMO gap =   0.028593 Hartree
Number of active orbitals = 18
Number of active electrons = 9
EMax =   3.98e-05
thresh =   1.00e-06
Generating Pseudo-Fermi distribution of occupation numbers.
--
# Rescaled active electrons =      9.000
Writing occupation numbers to disk ...
---- Fractional Occupation Number Information End ----


---- Fractional Occupation Number Information ----
Temperature =    300.000 K
Fermi level =   0.014356 Hartree
HOMO-LUMO gap =   0.155829 Hartree
Number of active orbitals = 18
Number of active electrons = 9
EMax =   3.98e-05
thresh =   1.00e-06
Generating Pseudo-Fermi distribution of occupation numbers.
--
# Rescaled active electrons =      9.000
Writing occupation numbers to disk ...
---- Fractional Occupation Number Information End ----

   49   -1104.8199322418      3.98E-05

---- Fractional Occupation Number Information ----
Temperature =    300.000 K
Fermi level =   0.079476 Hartree
HOMO-LUMO gap =   0.028624 Hartree
Number of active orbitals = 18
Number of active electrons = 9
EMax =   3.94e-05
thresh =   1.00e-06
Generating Pseudo-Fermi distribution of occupation numbers.
--
# Rescaled active electrons =      9.000
Writing occupation numbers to disk ...
---- Fractional Occupation Number Information End ----


---- Fractional Occupation Number Information ----
Temperature =    300.000 K
Fermi level =   0.014298 Hartree
HOMO-LUMO gap =   0.155864 Hartree
Number of active orbitals = 18
Number of active electrons = 9
EMax =   3.94e-05
thresh =   1.00e-06
Generating Pseudo-Fermi distribution of occupation numbers.
--
# Rescaled active electrons =      9.000
Writing occupation numbers to disk ...
---- Fractional Occupation Number Information End ----

   50   -1104.8199179225      3.94E-05

---- Fractional Occupation Number Information ----
Temperature =    300.000 K
Fermi level =   0.079696 Hartree
HOMO-LUMO gap =   0.028802 Hartree
Number of active orbitals = 18
Number of active electrons = 9
EMax =   5.05e-05
thresh =   1.00e-06
Generating Pseudo-Fermi distribution of occupation numbers.
--
# Rescaled active electrons =      9.000
Writing occupation numbers to disk ...
---- Fractional Occupation Number Information End ----


---- Fractional Occupation Number Information ----
Temperature =    300.000 K
Fermi level =   0.014575 Hartree
HOMO-LUMO gap =   0.155992 Hartree
Number of active orbitals = 18
Number of active electrons = 9
EMax =   5.05e-05
thresh =   1.00e-06
Generating Pseudo-Fermi distribution of occupation numbers.
--
# Rescaled active electrons =      9.000
Writing occupation numbers to disk ...
---- Fractional Occupation Number Information End ----

   51   -1104.8196366339      5.05E-05

---- Fractional Occupation Number Information ----
Temperature =    300.000 K
Fermi level =   0.079572 Hartree
HOMO-LUMO gap =   0.028647 Hartree
Number of active orbitals = 18
Number of active electrons = 9
EMax =   3.14e-05
thresh =   1.00e-06
Generating Pseudo-Fermi distribution of occupation numbers.
--
# Rescaled active electrons =      9.000
Writing occupation numbers to disk ...
---- Fractional Occupation Number Information End ----


---- Fractional Occupation Number Information ----
Temperature =    300.000 K
Fermi level =   0.014442 Hartree
HOMO-LUMO gap =   0.155842 Hartree
Number of active orbitals = 18
Number of active electrons = 9
EMax =   3.14e-05
thresh =   1.00e-06
Generating Pseudo-Fermi distribution of occupation numbers.
--
# Rescaled active electrons =      9.000
Writing occupation numbers to disk ...
---- Fractional Occupation Number Information End ----

   52   -1104.8198606118      3.14E-05

---- Fractional Occupation Number Information ----
Temperature =    300.000 K
Fermi level =   0.079511 Hartree
HOMO-LUMO gap =   0.028599 Hartree
Number of active orbitals = 18
Number of active electrons = 9
EMax =   2.37e-05
thresh =   1.00e-06
Generating Pseudo-Fermi distribution of occupation numbers.
--
# Rescaled active electrons =      9.000
Writing occupation numbers to disk ...
---- Fractional Occupation Number Information End ----


---- Fractional Occupation Number Information ----
Temperature =    300.000 K
Fermi level =   0.014370 Hartree
HOMO-LUMO gap =   0.155815 Hartree
Number of active orbitals = 18
Number of active electrons = 9
EMax =   2.37e-05
thresh =   1.00e-06
Generating Pseudo-Fermi distribution of occupation numbers.
--
# Rescaled active electrons =      9.000
Writing occupation numbers to disk ...
---- Fractional Occupation Number Information End ----

   53   -1104.8200527141      2.37E-05

---- Fractional Occupation Number Information ----
Temperature =    300.000 K
Fermi level =   0.079262 Hartree
HOMO-LUMO gap =   0.028407 Hartree
Number of active orbitals = 18
Number of active electrons = 9
EMax =   2.15e-05
thresh =   1.00e-06
Generating Pseudo-Fermi distribution of occupation numbers.
--
# Rescaled active electrons =      9.000
Writing occupation numbers to disk ...
---- Fractional Occupation Number Information End ----


---- Fractional Occupation Number Information ----
Temperature =    300.000 K
Fermi level =   0.014057 Hartree
HOMO-LUMO gap =   0.155680 Hartree
Number of active orbitals = 18
Number of active electrons = 9
EMax =   2.15e-05
thresh =   1.00e-06
Generating Pseudo-Fermi distribution of occupation numbers.
--
# Rescaled active electrons =      9.000
Writing occupation numbers to disk ...
---- Fractional Occupation Number Information End ----

   54   -1104.8200719238      2.15E-05

---- Fractional Occupation Number Information ----
Temperature =    300.000 K
Fermi level =   0.079091 Hartree
HOMO-LUMO gap =   0.028281 Hartree
Number of active orbitals = 18
Number of active electrons = 9
EMax =   2.67e-05
thresh =   1.00e-06
Generating Pseudo-Fermi distribution of occupation numbers.
--
# Rescaled active electrons =      9.000
Writing occupation numbers to disk ...
---- Fractional Occupation Number Information End ----


---- Fractional Occupation Number Information ----
Temperature =    300.000 K
Fermi level =   0.013837 Hartree
HOMO-LUMO gap =   0.155595 Hartree
Number of active orbitals = 18
Number of active electrons = 9
EMax =   2.67e-05
thresh =   1.00e-06
Generating Pseudo-Fermi distribution of occupation numbers.
--
# Rescaled active electrons =      9.000
Writing occupation numbers to disk ...
---- Fractional Occupation Number Information End ----

   55   -1104.8202013121      2.67E-05

---- Fractional Occupation Number Information ----
Temperature =    300.000 K
Fermi level =   0.079204 Hartree
HOMO-LUMO gap =   0.028368 Hartree
Number of active orbitals = 18
Number of active electrons = 9
EMax =   3.16e-05
thresh =   1.00e-06
Generating Pseudo-Fermi distribution of occupation numbers.
--
# Rescaled active electrons =      9.000
Writing occupation numbers to disk ...
---- Fractional Occupation Number Information End ----


---- Fractional Occupation Number Information ----
Temperature =    300.000 K
Fermi level =   0.013982 Hartree
HOMO-LUMO gap =   0.155661 Hartree
Number of active orbitals = 18
Number of active electrons = 9
EMax =   3.16e-05
thresh =   1.00e-06
Generating Pseudo-Fermi distribution of occupation numbers.
--
# Rescaled active electrons =      9.000
Writing occupation numbers to disk ...
---- Fractional Occupation Number Information End ----

   56   -1104.8201864319      3.16E-05

---- Fractional Occupation Number Information ----
Temperature =    300.000 K
Fermi level =   0.079348 Hartree
HOMO-LUMO gap =   0.028468 Hartree
Number of active orbitals = 18
Number of active electrons = 9
EMax =   2.63e-05
thresh =   1.00e-06
Generating Pseudo-Fermi distribution of occupation numbers.
--
# Rescaled active electrons =      9.000
Writing occupation numbers to disk ...
---- Fractional Occupation Number Information End ----


---- Fractional Occupation Number Information ----
Temperature =    300.000 K
Fermi level =   0.014167 Hartree
HOMO-LUMO gap =   0.155714 Hartree
Number of active orbitals = 18
Number of active electrons = 9
EMax =   2.63e-05
thresh =   1.00e-06
Generating Pseudo-Fermi distribution of occupation numbers.
--
# Rescaled active electrons =      9.000
Writing occupation numbers to disk ...
---- Fractional Occupation Number Information End ----

   57   -1104.8202286149      2.63E-05

---- Fractional Occupation Number Information ----
Temperature =    300.000 K
Fermi level =   0.079427 Hartree
HOMO-LUMO gap =   0.028553 Hartree
Number of active orbitals = 18
Number of active electrons = 9
EMax =   2.51e-05
thresh =   1.00e-06
Generating Pseudo-Fermi distribution of occupation numbers.
--
# Rescaled active electrons =      9.000
Writing occupation numbers to disk ...
---- Fractional Occupation Number Information End ----


---- Fractional Occupation Number Information ----
Temperature =    300.000 K
Fermi level =   0.014259 Hartree
HOMO-LUMO gap =   0.155784 Hartree
Number of active orbitals = 18
Number of active electrons = 9
EMax =   2.51e-05
thresh =   1.00e-06
Generating Pseudo-Fermi distribution of occupation numbers.
--
# Rescaled active electrons =      9.000
Writing occupation numbers to disk ...
---- Fractional Occupation Number Information End ----

   58   -1104.8200476924      2.51E-05

---- Fractional Occupation Number Information ----
Temperature =    300.000 K
Fermi level =   0.079431 Hartree
HOMO-LUMO gap =   0.028557 Hartree
Number of active orbitals = 18
Number of active electrons = 9
EMax =   2.94e-05
thresh =   1.00e-06
Generating Pseudo-Fermi distribution of occupation numbers.
--
# Rescaled active electrons =      9.000
Writing occupation numbers to disk ...
---- Fractional Occupation Number Information End ----


---- Fractional Occupation Number Information ----
Temperature =    300.000 K
Fermi level =   0.014263 Hartree
HOMO-LUMO gap =   0.155786 Hartree
Number of active orbitals = 18
Number of active electrons = 9
EMax =   2.94e-05
thresh =   1.00e-06
Generating Pseudo-Fermi distribution of occupation numbers.
--
# Rescaled active electrons =      9.000
Writing occupation numbers to disk ...
---- Fractional Occupation Number Information End ----

   59   -1104.8200926111      2.94E-05

---- Fractional Occupation Number Information ----
Temperature =    300.000 K
Fermi level =   0.079562 Hartree
HOMO-LUMO gap =   0.028646 Hartree
Number of active orbitals = 18
Number of active electrons = 9
EMax =   2.92e-05
thresh =   1.00e-06
Generating Pseudo-Fermi distribution of occupation numbers.
--
# Rescaled active electrons =      9.000
Writing occupation numbers to disk ...
---- Fractional Occupation Number Information End ----


---- Fractional Occupation Number Information ----
Temperature =    300.000 K
Fermi level =   0.014435 Hartree
HOMO-LUMO gap =   0.155853 Hartree
Number of active orbitals = 18
Number of active electrons = 9
EMax =   2.92e-05
thresh =   1.00e-06
Generating Pseudo-Fermi distribution of occupation numbers.
--
# Rescaled active electrons =      9.000
Writing occupation numbers to disk ...
---- Fractional Occupation Number Information End ----

   60   -1104.8200829084      2.92E-05

---- Fractional Occupation Number Information ----
Temperature =    300.000 K
Fermi level =   0.078649 Hartree
HOMO-LUMO gap =   0.027260 Hartree
Number of active orbitals = 18
Number of active electrons = 9
EMax =   3.77e-05
thresh =   1.00e-06
Generating Pseudo-Fermi distribution of occupation numbers.
--
# Rescaled active electrons =      9.000
Writing occupation numbers to disk ...
---- Fractional Occupation Number Information End ----


---- Fractional Occupation Number Information ----
Temperature =    300.000 K
Fermi level =   0.013491 Hartree
HOMO-LUMO gap =   0.154328 Hartree
Number of active orbitals = 18
Number of active electrons = 9
EMax =   3.77e-05
thresh =   1.00e-06
Generating Pseudo-Fermi distribution of occupation numbers.
--
# Rescaled active electrons =      9.000
Writing occupation numbers to disk ...
---- Fractional Occupation Number Information End ----

   61   -1104.8200538824      3.77E-05

---- Fractional Occupation Number Information ----
Temperature =    300.000 K
Fermi level =   0.078620 Hartree
HOMO-LUMO gap =   0.027791 Hartree
Number of active orbitals = 18
Number of active electrons = 9
EMax =   1.77e-05
thresh =   1.00e-06
Generating Pseudo-Fermi distribution of occupation numbers.
--
# Rescaled active electrons =      9.000
Writing occupation numbers to disk ...
---- Fractional Occupation Number Information End ----


---- Fractional Occupation Number Information ----
Temperature =    300.000 K
Fermi level =   0.013358 Hartree
HOMO-LUMO gap =   0.155066 Hartree
Number of active orbitals = 18
Number of active electrons = 9
EMax =   1.77e-05
thresh =   1.00e-06
Generating Pseudo-Fermi distribution of occupation numbers.
--
# Rescaled active electrons =      9.000
Writing occupation numbers to disk ...
---- Fractional Occupation Number Information End ----

   62   -1104.8204008983      1.77E-05

---- Fractional Occupation Number Information ----
Temperature =    300.000 K
Fermi level =   0.078217 Hartree
HOMO-LUMO gap =   0.027196 Hartree
Number of active orbitals = 18
Number of active electrons = 9
EMax =   2.12e-05
thresh =   1.00e-06
Generating Pseudo-Fermi distribution of occupation numbers.
--
# Rescaled active electrons =      9.000
Writing occupation numbers to disk ...
---- Fractional Occupation Number Information End ----


---- Fractional Occupation Number Information ----
Temperature =    300.000 K
Fermi level =   0.012871 Hartree
HOMO-LUMO gap =   0.154411 Hartree
Number of active orbitals = 18
Number of active electrons = 9
EMax =   2.12e-05
thresh =   1.00e-06
Generating Pseudo-Fermi distribution of occupation numbers.
--
# Rescaled active electrons =      9.000
Writing occupation numbers to disk ...
---- Fractional Occupation Number Information End ----

   63   -1104.8201263168      2.12E-05

---- Fractional Occupation Number Information ----
Temperature =    300.000 K
Fermi level =   0.078472 Hartree
HOMO-LUMO gap =   0.027433 Hartree
Number of active orbitals = 18
Number of active electrons = 9
EMax =   3.09e-05
thresh =   1.00e-06
Generating Pseudo-Fermi distribution of occupation numbers.
--
# Rescaled active electrons =      9.000
Writing occupation numbers to disk ...
---- Fractional Occupation Number Information End ----


---- Fractional Occupation Number Information ----
Temperature =    300.000 K
Fermi level =   0.013184 Hartree
HOMO-LUMO gap =   0.154666 Hartree
Number of active orbitals = 18
Number of active electrons = 9
EMax =   3.09e-05
thresh =   1.00e-06
Generating Pseudo-Fermi distribution of occupation numbers.
--
# Rescaled active electrons =      9.000
Writing occupation numbers to disk ...
---- Fractional Occupation Number Information End ----

   64   -1104.8199494362      3.09E-05

---- Fractional Occupation Number Information ----
Temperature =    300.000 K
Fermi level =   0.078329 Hartree
HOMO-LUMO gap =   0.027355 Hartree
Number of active orbitals = 18
Number of active electrons = 9
EMax =   3.50e-05
thresh =   1.00e-06
Generating Pseudo-Fermi distribution of occupation numbers.
--
# Rescaled active electrons =      9.000
Writing occupation numbers to disk ...
---- Fractional Occupation Number Information End ----


---- Fractional Occupation Number Information ----
Temperature =    300.000 K
Fermi level =   0.013010 Hartree
HOMO-LUMO gap =   0.154632 Hartree
Number of active orbitals = 18
Number of active electrons = 9
EMax =   3.50e-05
thresh =   1.00e-06
Generating Pseudo-Fermi distribution of occupation numbers.
--
# Rescaled active electrons =      9.000
Writing occupation numbers to disk ...
---- Fractional Occupation Number Information End ----

   65   -1104.8199724815      3.50E-05

---- Fractional Occupation Number Information ----
Temperature =    300.000 K
Fermi level =   0.078220 Hartree
HOMO-LUMO gap =   0.027328 Hartree
Number of active orbitals = 18
Number of active electrons = 9
EMax =   2.93e-05
thresh =   1.00e-06
Generating Pseudo-Fermi distribution of occupation numbers.
--
# Rescaled active electrons =      9.000
Writing occupation numbers to disk ...
---- Fractional Occupation Number Information End ----


---- Fractional Occupation Number Information ----
Temperature =    300.000 K
Fermi level =   0.012876 Hartree
HOMO-LUMO gap =   0.154754 Hartree
Number of active orbitals = 18
Number of active electrons = 9
EMax =   2.93e-05
thresh =   1.00e-06
Generating Pseudo-Fermi distribution of occupation numbers.
--
# Rescaled active electrons =      9.000
Writing occupation numbers to disk ...
---- Fractional Occupation Number Information End ----

   66   -1104.8199962960      2.93E-05

---- Fractional Occupation Number Information ----
Temperature =    300.000 K
Fermi level =   0.078147 Hartree
HOMO-LUMO gap =   0.027429 Hartree
Number of active orbitals = 18
Number of active electrons = 9
EMax =   1.64e-05
thresh =   1.00e-06
Generating Pseudo-Fermi distribution of occupation numbers.
--
# Rescaled active electrons =      9.000
Writing occupation numbers to disk ...
---- Fractional Occupation Number Information End ----


---- Fractional Occupation Number Information ----
Temperature =    300.000 K
Fermi level =   0.012764 Hartree
HOMO-LUMO gap =   0.155015 Hartree
Number of active orbitals = 18
Number of active electrons = 9
EMax =   1.64e-05
thresh =   1.00e-06
Generating Pseudo-Fermi distribution of occupation numbers.
--
# Rescaled active electrons =      9.000
Writing occupation numbers to disk ...
---- Fractional Occupation Number Information End ----

   67   -1104.8200676199      1.64E-05

---- Fractional Occupation Number Information ----
Temperature =    300.000 K
Fermi level =   0.077939 Hartree
HOMO-LUMO gap =   0.027475 Hartree
Number of active orbitals = 18
Number of active electrons = 9
EMax =   9.04e-06
thresh =   1.00e-06
Generating Pseudo-Fermi distribution of occupation numbers.
--
# Rescaled active electrons =      9.000
Writing occupation numbers to disk ...
---- Fractional Occupation Number Information End ----


---- Fractional Occupation Number Information ----
Temperature =    300.000 K
Fermi level =   0.012453 Hartree
HOMO-LUMO gap =   0.155282 Hartree
Number of active orbitals = 18
Number of active electrons = 9
EMax =   9.04e-06
thresh =   1.00e-06
Generating Pseudo-Fermi distribution of occupation numbers.
--
# Rescaled active electrons =      9.000
Writing occupation numbers to disk ...
---- Fractional Occupation Number Information End ----

   68   -1104.8200886268      9.04E-06

---- Fractional Occupation Number Information ----
Temperature =    300.000 K
Fermi level =   0.077972 Hartree
HOMO-LUMO gap =   0.027497 Hartree
Number of active orbitals = 18
Number of active electrons = 9
EMax =   1.75e-05
thresh =   1.00e-06
Generating Pseudo-Fermi distribution of occupation numbers.
--
# Rescaled active electrons =      9.000
Writing occupation numbers to disk ...
---- Fractional Occupation Number Information End ----


---- Fractional Occupation Number Information ----
Temperature =    300.000 K
Fermi level =   0.012488 Hartree
HOMO-LUMO gap =   0.155291 Hartree
Number of active orbitals = 18
Number of active electrons = 9
EMax =   1.75e-05
thresh =   1.00e-06
Generating Pseudo-Fermi distribution of occupation numbers.
--
# Rescaled active electrons =      9.000
Writing occupation numbers to disk ...
---- Fractional Occupation Number Information End ----

   69   -1104.8201605046      1.75E-05

---- Fractional Occupation Number Information ----
Temperature =    300.000 K
Fermi level =   0.078153 Hartree
HOMO-LUMO gap =   0.027639 Hartree
Number of active orbitals = 18
Number of active electrons = 9
EMax =   1.49e-05
thresh =   1.00e-06
Generating Pseudo-Fermi distribution of occupation numbers.
--
# Rescaled active electrons =      9.000
Writing occupation numbers to disk ...
---- Fractional Occupation Number Information End ----


---- Fractional Occupation Number Information ----
Temperature =    300.000 K
Fermi level =   0.012686 Hartree
HOMO-LUMO gap =   0.155398 Hartree
Number of active orbitals = 18
Number of active electrons = 9
EMax =   1.49e-05
thresh =   1.00e-06
Generating Pseudo-Fermi distribution of occupation numbers.
--
# Rescaled active electrons =      9.000
Writing occupation numbers to disk ...
---- Fractional Occupation Number Information End ----

   70   -1104.8201742001      1.49E-05

---- Fractional Occupation Number Information ----
Temperature =    300.000 K
Fermi level =   0.078076 Hartree
HOMO-LUMO gap =   0.027593 Hartree
Number of active orbitals = 18
Number of active electrons = 9
EMax =   2.83e-05
thresh =   1.00e-06
Generating Pseudo-Fermi distribution of occupation numbers.
--
# Rescaled active electrons =      9.000
Writing occupation numbers to disk ...
---- Fractional Occupation Number Information End ----


---- Fractional Occupation Number Information ----
Temperature =    300.000 K
Fermi level =   0.012578 Hartree
HOMO-LUMO gap =   0.155365 Hartree
Number of active orbitals = 18
Number of active electrons = 9
EMax =   2.83e-05
thresh =   1.00e-06
Generating Pseudo-Fermi distribution of occupation numbers.
--
# Rescaled active electrons =      9.000
Writing occupation numbers to disk ...
---- Fractional Occupation Number Information End ----

   71   -1104.8201875778      2.83E-05

---- Fractional Occupation Number Information ----
Temperature =    300.000 K
Fermi level =   0.077997 Hartree
HOMO-LUMO gap =   0.027558 Hartree
Number of active orbitals = 18
Number of active electrons = 9
EMax =   2.61e-05
thresh =   1.00e-06
Generating Pseudo-Fermi distribution of occupation numbers.
--
# Rescaled active electrons =      9.000
Writing occupation numbers to disk ...
---- Fractional Occupation Number Information End ----


---- Fractional Occupation Number Information ----
Temperature =    300.000 K
Fermi level =   0.012465 Hartree
HOMO-LUMO gap =   0.155360 Hartree
Number of active orbitals = 18
Number of active electrons = 9
EMax =   2.61e-05
thresh =   1.00e-06
Generating Pseudo-Fermi distribution of occupation numbers.
--
# Rescaled active electrons =      9.000
Writing occupation numbers to disk ...
---- Fractional Occupation Number Information End ----

   72   -1104.8202025566      2.61E-05

---- Fractional Occupation Number Information ----
Temperature =    300.000 K
Fermi level =   0.077964 Hartree
HOMO-LUMO gap =   0.027574 Hartree
Number of active orbitals = 18
Number of active electrons = 9
EMax =   1.73e-05
thresh =   1.00e-06
Generating Pseudo-Fermi distribution of occupation numbers.
--
# Rescaled active electrons =      9.000
Writing occupation numbers to disk ...
---- Fractional Occupation Number Information End ----


---- Fractional Occupation Number Information ----
Temperature =    300.000 K
Fermi level =   0.012414 Hartree
HOMO-LUMO gap =   0.155426 Hartree
Number of active orbitals = 18
Number of active electrons = 9
EMax =   1.73e-05
thresh =   1.00e-06
Generating Pseudo-Fermi distribution of occupation numbers.
--
# Rescaled active electrons =      9.000
Writing occupation numbers to disk ...
---- Fractional Occupation Number Information End ----
[...]
thresh =   1.00e-06
Generating Pseudo-Fermi distribution of occupation numbers.
--
# Rescaled active electrons =      9.000
Writing occupation numbers to disk ...
---- Fractional Occupation Number Information End ----

  179   -1104.8204690668      2.49E-05

---- Fractional Occupation Number Information ----
Temperature =    300.000 K
Fermi level =   0.077898 Hartree
HOMO-LUMO gap =   0.027588 Hartree
Number of active orbitals = 18
Number of active electrons = 9
EMax =   1.02e-05
thresh =   1.00e-06
Generating Pseudo-Fermi distribution of occupation numbers.
--
# Rescaled active electrons =      9.000
Writing occupation numbers to disk ...
---- Fractional Occupation Number Information End ----


---- Fractional Occupation Number Information ----
Temperature =    300.000 K
Fermi level =   0.012325 Hartree
HOMO-LUMO gap =   0.155546 Hartree
Number of active orbitals = 18
Number of active electrons = 9
EMax =   1.02e-05
thresh =   1.00e-06
Generating Pseudo-Fermi distribution of occupation numbers.
--
# Rescaled active electrons =      9.000
Writing occupation numbers to disk ...
---- Fractional Occupation Number Information End ----

  180   -1104.8201559825      1.02E-05

---- Fractional Occupation Number Information ----
Temperature =    300.000 K
Fermi level =   0.077896 Hartree
HOMO-LUMO gap =   0.027587 Hartree
Number of active orbitals = 18
Number of active electrons = 9
EMax =   1.54e-05
thresh =   1.00e-06
Generating Pseudo-Fermi distribution of occupation numbers.
--
# Rescaled active electrons =      9.000
Writing occupation numbers to disk ...
---- Fractional Occupation Number Information End ----


---- Fractional Occupation Number Information ----
Temperature =    300.000 K
Fermi level =   0.012324 Hartree
HOMO-LUMO gap =   0.155544 Hartree
Number of active orbitals = 18
Number of active electrons = 9
EMax =   1.54e-05
thresh =   1.00e-06
Generating Pseudo-Fermi distribution of occupation numbers.
--
# Rescaled active electrons =      9.000
Writing occupation numbers to disk ...
---- Fractional Occupation Number Information End ----

  181   -1104.8201816685      1.54E-05

---- Fractional Occupation Number Information ----
Temperature =    300.000 K
Fermi level =   0.077898 Hartree
HOMO-LUMO gap =   0.027588 Hartree
Number of active orbitals = 18
Number of active electrons = 9
EMax =   1.27e-05
thresh =   1.00e-06
Generating Pseudo-Fermi distribution of occupation numbers.
--
# Rescaled active electrons =      9.000
Writing occupation numbers to disk ...
---- Fractional Occupation Number Information End ----


---- Fractional Occupation Number Information ----
Temperature =    300.000 K
Fermi level =   0.012326 Hartree
HOMO-LUMO gap =   0.155546 Hartree
Number of active orbitals = 18
Number of active electrons = 9
EMax =   1.27e-05
thresh =   1.00e-06
Generating Pseudo-Fermi distribution of occupation numbers.
--
# Rescaled active electrons =      9.000
Writing occupation numbers to disk ...
---- Fractional Occupation Number Information End ----

  182   -1104.8201808283      1.27E-05

---- Fractional Occupation Number Information ----
Temperature =    300.000 K
Fermi level =   0.077899 Hartree
HOMO-LUMO gap =   0.027588 Hartree
Number of active orbitals = 18
Number of active electrons = 9
EMax =   1.50e-05
thresh =   1.00e-06
Generating Pseudo-Fermi distribution of occupation numbers.
--
# Rescaled active electrons =      9.000
Writing occupation numbers to disk ...
---- Fractional Occupation Number Information End ----


---- Fractional Occupation Number Information ----
Temperature =    300.000 K
Fermi level =   0.012327 Hartree
HOMO-LUMO gap =   0.155545 Hartree
Number of active orbitals = 18
Number of active electrons = 9
EMax =   1.50e-05
thresh =   1.00e-06
Generating Pseudo-Fermi distribution of occupation numbers.
--
# Rescaled active electrons =      9.000
Writing occupation numbers to disk ...
---- Fractional Occupation Number Information End ----

  183   -1104.8201623757      1.50E-05

---- Fractional Occupation Number Information ----
Temperature =    300.000 K
Fermi level =   0.077898 Hartree
HOMO-LUMO gap =   0.027587 Hartree
Number of active orbitals = 18
Number of active electrons = 9
EMax =   1.62e-05
thresh =   1.00e-06
Generating Pseudo-Fermi distribution of occupation numbers.
--
# Rescaled active electrons =      9.000
Writing occupation numbers to disk ...
---- Fractional Occupation Number Information End ----


---- Fractional Occupation Number Information ----
Temperature =    300.000 K
Fermi level =   0.012326 Hartree
HOMO-LUMO gap =   0.155544 Hartree
Number of active orbitals = 18
Number of active electrons = 9
EMax =   1.62e-05
thresh =   1.00e-06
Generating Pseudo-Fermi distribution of occupation numbers.
--
# Rescaled active electrons =      9.000
Writing occupation numbers to disk ...
---- Fractional Occupation Number Information End ----

  184   -1104.8201442914      1.62E-05

---- Fractional Occupation Number Information ----
Temperature =    300.000 K
Fermi level =   0.077897 Hartree
HOMO-LUMO gap =   0.027587 Hartree
Number of active orbitals = 18
Number of active electrons = 9
EMax =   2.56e-05
thresh =   1.00e-06
Generating Pseudo-Fermi distribution of occupation numbers.
--
# Rescaled active electrons =      9.000
Writing occupation numbers to disk ...
---- Fractional Occupation Number Information End ----


---- Fractional Occupation Number Information ----
Temperature =    300.000 K
Fermi level =   0.012325 Hartree
HOMO-LUMO gap =   0.155544 Hartree
Number of active orbitals = 18
Number of active electrons = 9
EMax =   2.56e-05
thresh =   1.00e-06
Generating Pseudo-Fermi distribution of occupation numbers.
--
# Rescaled active electrons =      9.000
Writing occupation numbers to disk ...
---- Fractional Occupation Number Information End ----

  185   -1104.8201308035      2.56E-05

---- Fractional Occupation Number Information ----
Temperature =    300.000 K
Fermi level =   0.077897 Hartree
HOMO-LUMO gap =   0.027587 Hartree
Number of active orbitals = 18
Number of active electrons = 9
EMax =   2.27e-05
thresh =   1.00e-06
Generating Pseudo-Fermi distribution of occupation numbers.
--
# Rescaled active electrons =      9.000
Writing occupation numbers to disk ...
---- Fractional Occupation Number Information End ----


---- Fractional Occupation Number Information ----
Temperature =    300.000 K
Fermi level =   0.012324 Hartree
HOMO-LUMO gap =   0.155542 Hartree
Number of active orbitals = 18
Number of active electrons = 9
EMax =   2.27e-05
thresh =   1.00e-06
Generating Pseudo-Fermi distribution of occupation numbers.
--
# Rescaled active electrons =      9.000
Writing occupation numbers to disk ...
---- Fractional Occupation Number Information End ----

  186   -1104.8201637995      2.27E-05

---- Fractional Occupation Number Information ----
Temperature =    300.000 K
Fermi level =   0.077898 Hartree
HOMO-LUMO gap =   0.027588 Hartree
Number of active orbitals = 18
Number of active electrons = 9
EMax =   9.41e-06
thresh =   1.00e-06
Generating Pseudo-Fermi distribution of occupation numbers.
--
# Rescaled active electrons =      9.000
Writing occupation numbers to disk ...
---- Fractional Occupation Number Information End ----


---- Fractional Occupation Number Information ----
Temperature =    300.000 K
Fermi level =   0.012326 Hartree
HOMO-LUMO gap =   0.155544 Hartree
Number of active orbitals = 18
Number of active electrons = 9
EMax =   9.41e-06
thresh =   1.00e-06
Generating Pseudo-Fermi distribution of occupation numbers.
--
# Rescaled active electrons =      9.000
Writing occupation numbers to disk ...
---- Fractional Occupation Number Information End ----

  187   -1104.8202034952      9.41E-06

---- Fractional Occupation Number Information ----
Temperature =    300.000 K
Fermi level =   0.077899 Hartree
HOMO-LUMO gap =   0.027589 Hartree
Number of active orbitals = 18
Number of active electrons = 9
EMax =   8.98e-06
thresh =   1.00e-06
Generating Pseudo-Fermi distribution of occupation numbers.
--
# Rescaled active electrons =      9.000
Writing occupation numbers to disk ...
---- Fractional Occupation Number Information End ----


---- Fractional Occupation Number Information ----
Temperature =    300.000 K
Fermi level =   0.012327 Hartree
HOMO-LUMO gap =   0.155545 Hartree
Number of active orbitals = 18
Number of active electrons = 9
EMax =   8.98e-06
thresh =   1.00e-06
Generating Pseudo-Fermi distribution of occupation numbers.
--
# Rescaled active electrons =      9.000
Writing occupation numbers to disk ...
---- Fractional Occupation Number Information End ----

  188   -1104.8202288432      8.98E-06

---- Fractional Occupation Number Information ----
Temperature =    300.000 K
Fermi level =   0.077900 Hartree
HOMO-LUMO gap =   0.027589 Hartree
Number of active orbitals = 18
Number of active electrons = 9
EMax =   6.89e-06
thresh =   1.00e-06
Generating Pseudo-Fermi distribution of occupation numbers.
--
# Rescaled active electrons =      9.000
Writing occupation numbers to disk ...
---- Fractional Occupation Number Information End ----


---- Fractional Occupation Number Information ----
Temperature =    300.000 K
Fermi level =   0.012327 Hartree
HOMO-LUMO gap =   0.155545 Hartree
Number of active orbitals = 18
Number of active electrons = 9
EMax =   6.89e-06
thresh =   1.00e-06
Generating Pseudo-Fermi distribution of occupation numbers.
--
# Rescaled active electrons =      9.000
Writing occupation numbers to disk ...
---- Fractional Occupation Number Information End ----

  189   -1104.8202495043      6.89E-06

---- Fractional Occupation Number Information ----
Temperature =    300.000 K
Fermi level =   0.077898 Hartree
HOMO-LUMO gap =   0.027588 Hartree
Number of active orbitals = 18
Number of active electrons = 9
EMax =   6.47e-06
thresh =   1.00e-06
Generating Pseudo-Fermi distribution of occupation numbers.
--
# Rescaled active electrons =      9.000
Writing occupation numbers to disk ...
---- Fractional Occupation Number Information End ----


---- Fractional Occupation Number Information ----
Temperature =    300.000 K
Fermi level =   0.012325 Hartree
HOMO-LUMO gap =   0.155542 Hartree
Number of active orbitals = 18
Number of active electrons = 9
EMax =   6.47e-06
thresh =   1.00e-06
Generating Pseudo-Fermi distribution of occupation numbers.
--
# Rescaled active electrons =      9.000
Writing occupation numbers to disk ...
---- Fractional Occupation Number Information End ----

  190   -1104.8202242466      6.47E-06

---- Fractional Occupation Number Information ----
Temperature =    300.000 K
Fermi level =   0.077896 Hartree
HOMO-LUMO gap =   0.027586 Hartree
Number of active orbitals = 18
Number of active electrons = 9
EMax =   2.19e-05
thresh =   1.00e-06
Generating Pseudo-Fermi distribution of occupation numbers.
--
# Rescaled active electrons =      9.000
Writing occupation numbers to disk ...
---- Fractional Occupation Number Information End ----


---- Fractional Occupation Number Information ----
Temperature =    300.000 K
Fermi level =   0.012323 Hartree
HOMO-LUMO gap =   0.155543 Hartree
Number of active orbitals = 18
Number of active electrons = 9
EMax =   2.19e-05
thresh =   1.00e-06
Generating Pseudo-Fermi distribution of occupation numbers.
--
# Rescaled active electrons =      9.000
Writing occupation numbers to disk ...
---- Fractional Occupation Number Information End ----

  191   -1104.8202094404      2.19E-05

---- Fractional Occupation Number Information ----
Temperature =    300.000 K
Fermi level =   0.077895 Hartree
HOMO-LUMO gap =   0.027585 Hartree
Number of active orbitals = 18
Number of active electrons = 9
EMax =   9.71e-06
thresh =   1.00e-06
Generating Pseudo-Fermi distribution of occupation numbers.
--
# Rescaled active electrons =      9.000
Writing occupation numbers to disk ...
---- Fractional Occupation Number Information End ----


---- Fractional Occupation Number Information ----
Temperature =    300.000 K
Fermi level =   0.012322 Hartree
HOMO-LUMO gap =   0.155541 Hartree
Number of active orbitals = 18
Number of active electrons = 9
EMax =   9.71e-06
thresh =   1.00e-06
Generating Pseudo-Fermi distribution of occupation numbers.
--
# Rescaled active electrons =      9.000
Writing occupation numbers to disk ...
---- Fractional Occupation Number Information End ----

  192   -1104.8202833345      9.71E-06

---- Fractional Occupation Number Information ----
Temperature =    300.000 K
Fermi level =   0.077892 Hartree
HOMO-LUMO gap =   0.027582 Hartree
Number of active orbitals = 18
Number of active electrons = 9
EMax =   7.94e-06
thresh =   1.00e-06
Generating Pseudo-Fermi distribution of occupation numbers.
--
# Rescaled active electrons =      9.000
Writing occupation numbers to disk ...
---- Fractional Occupation Number Information End ----


---- Fractional Occupation Number Information ----
Temperature =    300.000 K
Fermi level =   0.012319 Hartree
HOMO-LUMO gap =   0.155538 Hartree
Number of active orbitals = 18
Number of active electrons = 9
EMax =   7.94e-06
thresh =   1.00e-06
Generating Pseudo-Fermi distribution of occupation numbers.
--
# Rescaled active electrons =      9.000
Writing occupation numbers to disk ...
---- Fractional Occupation Number Information End ----

  193   -1104.8203365393      7.94E-06

---- Fractional Occupation Number Information ----
Temperature =    300.000 K
Fermi level =   0.077892 Hartree
HOMO-LUMO gap =   0.027582 Hartree
Number of active orbitals = 18
Number of active electrons = 9
EMax =   7.40e-06
thresh =   1.00e-06
Generating Pseudo-Fermi distribution of occupation numbers.
--
# Rescaled active electrons =      9.000
Writing occupation numbers to disk ...
---- Fractional Occupation Number Information End ----


---- Fractional Occupation Number Information ----
Temperature =    300.000 K
Fermi level =   0.012318 Hartree
HOMO-LUMO gap =   0.155538 Hartree
Number of active orbitals = 18
Number of active electrons = 9
EMax =   7.40e-06
thresh =   1.00e-06
Generating Pseudo-Fermi distribution of occupation numbers.
--
# Rescaled active electrons =      9.000
Writing occupation numbers to disk ...
---- Fractional Occupation Number Information End ----

  194   -1104.8202872915      7.40E-06

---- Fractional Occupation Number Information ----
Temperature =    300.000 K
Fermi level =   0.077895 Hartree
HOMO-LUMO gap =   0.027584 Hartree
Number of active orbitals = 18
Number of active electrons = 9
EMax =   7.25e-06
thresh =   1.00e-06
Generating Pseudo-Fermi distribution of occupation numbers.
--
# Rescaled active electrons =      9.000
Writing occupation numbers to disk ...
---- Fractional Occupation Number Information End ----


---- Fractional Occupation Number Information ----
Temperature =    300.000 K
Fermi level =   0.012321 Hartree
HOMO-LUMO gap =   0.155536 Hartree
Number of active orbitals = 18
Number of active electrons = 9
EMax =   7.25e-06
thresh =   1.00e-06
Generating Pseudo-Fermi distribution of occupation numbers.
--
# Rescaled active electrons =      9.000
Writing occupation numbers to disk ...
---- Fractional Occupation Number Information End ----

  195   -1104.8202635557      7.25E-06

---- Fractional Occupation Number Information ----
Temperature =    300.000 K
Fermi level =   0.077894 Hartree
HOMO-LUMO gap =   0.027583 Hartree
Number of active orbitals = 18
Number of active electrons = 9
EMax =   8.52e-06
thresh =   1.00e-06
Generating Pseudo-Fermi distribution of occupation numbers.
--
# Rescaled active electrons =      9.000
Writing occupation numbers to disk ...
---- Fractional Occupation Number Information End ----


---- Fractional Occupation Number Information ----
Temperature =    300.000 K
Fermi level =   0.012320 Hartree
HOMO-LUMO gap =   0.155538 Hartree
Number of active orbitals = 18
Number of active electrons = 9
EMax =   8.52e-06
thresh =   1.00e-06
Generating Pseudo-Fermi distribution of occupation numbers.
--
# Rescaled active electrons =      9.000
Writing occupation numbers to disk ...
---- Fractional Occupation Number Information End ----

  196   -1104.8203046738      8.52E-06

---- Fractional Occupation Number Information ----
Temperature =    300.000 K
Fermi level =   0.077894 Hartree
HOMO-LUMO gap =   0.027583 Hartree
Number of active orbitals = 18
Number of active electrons = 9
EMax =   1.32e-05
thresh =   1.00e-06
Generating Pseudo-Fermi distribution of occupation numbers.
--
# Rescaled active electrons =      9.000
Writing occupation numbers to disk ...
---- Fractional Occupation Number Information End ----


---- Fractional Occupation Number Information ----
Temperature =    300.000 K
Fermi level =   0.012319 Hartree
HOMO-LUMO gap =   0.155538 Hartree
Number of active orbitals = 18
Number of active electrons = 9
EMax =   1.32e-05
thresh =   1.00e-06
Generating Pseudo-Fermi distribution of occupation numbers.
--
# Rescaled active electrons =      9.000
Writing occupation numbers to disk ...
---- Fractional Occupation Number Information End ----

  197   -1104.8202828915      1.32E-05

---- Fractional Occupation Number Information ----
Temperature =    300.000 K
Fermi level =   0.077894 Hartree
HOMO-LUMO gap =   0.027584 Hartree
Number of active orbitals = 18
Number of active electrons = 9
EMax =   7.56e-06
thresh =   1.00e-06
Generating Pseudo-Fermi distribution of occupation numbers.
--
# Rescaled active electrons =      9.000
Writing occupation numbers to disk ...
---- Fractional Occupation Number Information End ----


---- Fractional Occupation Number Information ----
Temperature =    300.000 K
Fermi level =   0.012319 Hartree
HOMO-LUMO gap =   0.155538 Hartree
Number of active orbitals = 18
Number of active electrons = 9
EMax =   7.56e-06
thresh =   1.00e-06
Generating Pseudo-Fermi distribution of occupation numbers.
--
# Rescaled active electrons =      9.000
Writing occupation numbers to disk ...
---- Fractional Occupation Number Information End ----

  198   -1104.8202103665      7.56E-06

---- Fractional Occupation Number Information ----
Temperature =    300.000 K
Fermi level =   0.077893 Hartree
HOMO-LUMO gap =   0.027583 Hartree
Number of active orbitals = 18
Number of active electrons = 9
EMax =   7.09e-06
thresh =   1.00e-06
Generating Pseudo-Fermi distribution of occupation numbers.
--
# Rescaled active electrons =      9.000
Writing occupation numbers to disk ...
---- Fractional Occupation Number Information End ----


---- Fractional Occupation Number Information ----
Temperature =    300.000 K
Fermi level =   0.012319 Hartree
HOMO-LUMO gap =   0.155539 Hartree
Number of active orbitals = 18
Number of active electrons = 9
EMax =   7.09e-06
thresh =   1.00e-06
Generating Pseudo-Fermi distribution of occupation numbers.
--
# Rescaled active electrons =      9.000
Writing occupation numbers to disk ...
---- Fractional Occupation Number Information End ----

  199   -1104.8202149907      7.09E-06

---- Fractional Occupation Number Information ----
Temperature =    300.000 K
Fermi level =   0.077891 Hartree
HOMO-LUMO gap =   0.027580 Hartree
Number of active orbitals = 18
Number of active electrons = 9
EMax =   7.27e-06
thresh =   1.00e-06
Generating Pseudo-Fermi distribution of occupation numbers.
--
# Rescaled active electrons =      9.000
Writing occupation numbers to disk ...
---- Fractional Occupation Number Information End ----


---- Fractional Occupation Number Information ----
Temperature =    300.000 K
Fermi level =   0.012322 Hartree
HOMO-LUMO gap =   0.155540 Hartree
Number of active orbitals = 18
Number of active electrons = 9
EMax =   7.27e-06
thresh =   1.00e-06
Generating Pseudo-Fermi distribution of occupation numbers.
--
# Rescaled active electrons =      9.000
Writing occupation numbers to disk ...
---- Fractional Occupation Number Information End ----

  200   -1104.8200387631      7.27E-06    Convergence failure

 Q-Chem fatal error occurred in module /project/projectdirs/jcesr/qchem/qc44/cnl_qc441/compile/cori/qc_src/scfman/scfman.C, line 4525:

 SCF failed to converge

