srun -N 1 --ntasks-per-node 16 --nodelist nid01048 /global/project/projectdirs/jcesr/qchem/qc44/cnl_qc441/dist/exe/qcprog.cori.exe .pt_charged_dft_-40.0.in.28278.qcin.1 /dev/shm/eg_qchem/qchem28278/
Process 0 of 16 is on nid01048 - thread support 0
Process 1 of 16 is on nid01048 - thread support 0
Process 2 of 16 is on nid01048 - thread support 0
Process 3 of 16 is on nid01048 - thread support 0
Process 4 of 16 is on nid01048 - thread support 0
Process 5 of 16 is on nid01048 - thread support 0
Process 6 of 16 is on nid01048 - thread support 0
Process 15 of 16 is on nid01048 - thread support 0
initial socket setup ...start
initial socket setup ...done 
now start server 0 ... 
nid01048 10.128.4
Q-Chem Developer Version! Running on 10.128.4.*
                  Welcome to Q-Chem
     A Quantum Leap Into The Future Of Chemistry


 Q-Chem 4.4, Q-Chem, Inc., Pleasanton, CA (2016)

 Y. Shao,  Z. Gan,  E. Epifanovsky,  A. T. B. Gilbert,  M. Wormit,  
 J. Kussmann,  A. W. Lange,  A. Behn,  J. Deng,  X. Feng,  D. Ghosh,  
 M. Goldey,  P. R. Horn,  L. D. Jacobson,  I. Kaliman,  F.Rob,  
 R. Z. Khaliullin,  T. Kus,  A. Landau,  J. Liu,  E. I. Proynov,  Y. M. Rhee,  
 R. M. Richard,  M. A. Rohrdanz,  R. P. Steele,  E. J. Sundstrom,  
 H. L. Woodcock III,  P. M. Zimmerman,  D. Zuev,  B. Albrecht,  E. Alguire,  
 B. Austin,  S. A. Baeppler,  G. J. O. Beran,  Y. A. Bernard,  E. Berquist,  
 K. Brandhorst,  K. B. Bravaya,  S. T. Brown,  D. Casanova,  C.-M. Chang,  
 Y. Chen,  S. H. Chien,  K. D. Closser,  M. P. Coons,  D. L. Crittenden,  
 S. Dasgupta,  M. Diedenhofen,  R. A. DiStasio Jr.,  H. Do,  A. D. Dutoi,  
 R. G. Edgar,  P.-T. Fang,  S. Fatehi,  Q. Feng,  L. Fusti-Molnar,  
 A. Ghysels,  A. Golubeva-Zadorozhnaya,  J. Gomes,  A. Gunina,  
 M. W. D. Hanson-Heine,  P. H. P. Harbach,  A. W. Hauser,  E. G. Hohenstein,  
 Z. C. Holden,  K. Hui,  T.-C. Jagau,  H. Ji,  B. Kaduk,  K. Khistyaev,  
 Jaehoon Kim,  Jihan Kim,  R. A. King,  P. Klunzinger,  D. Kosenkov,  
 T. Kowalczyk,  C. M. Krauter,  A. Kunitsa,  K. U. Lao,  A. Laurent,  
 K. V. Lawler,  D. Lefrancois,  S. Lehtola,  S. V. Levchenko,  C. Y. Lin,  
 Y.-S. Lin,  F. Liu,  E. Livshits,  R. C. Lochan,  A. Luenser,  P. Manohar,  
 S. F. Manzer,  S.-P. Mao,  Y. Mao,  N. Mardirossian,  A. V. Marenich,  
 L. A. Martinez-Martinez,  S. A. Maurer,  N. J. Mayhall,  J.-M. Mewes,  
 A. F. Morrison,  K. Nanda,  C. M. Oana,  R. Olivares-Amaya,  D. P. O'Neill,  
 J. A. Parkhill,  T. M. Perrine,  R. Peverati,  P. A. Pieniazek,  F. Plasser,  
 A. Prociuk,  D. R. Rehn,  E. Rosta,  N. J. Russ,  N. Sergueev,  
 S. M. Sharada,  S. Sharma,  D. W. Small,  A. Sodt,  T. Stauch,  T. Stein,  
 D. Stuck,  Y.-C. Su,  A. J. W. Thom,  T. Tsuchimochi,  L. Vogt,  O. Vydrov,  
 T. Wang,  M. A. Watson,  J. Wenzel,  A. White,  C. F. Williams,  
 V. Vanovschi,  S. Yeganeh,  S. R. Yost,  Z.-Q. You,  I. Y. Zhang,  X. Zhang,  
 Y. Zhao,  B. R. Brooks,  G. K. L. Chan,  D. M. Chipman,  C. J. Cramer,  
 W. A. Goddard III,  M. S. Gordon,  W. J. Hehre,  A. Klamt,  
 H. F. Schaefer III,  M. W. Schmidt,  C. D. Sherrill,  D. G. Truhlar,  
 A. Warshel,  X. Xu,  A. Aspuru-Guzik,  R. Baer,  A. T. Bell,  N. A. Besley,  
 J.-D. Chai,  A. Dreuw,  B. D. Dunietz,  T. R. Furlani,  S. R. Gwaltney,  
 C.-P. Hsu,  Y. Jung,  J. Kong,  D. S. Lambrecht,  W. Liang,  C. Ochsenfeld,  
 V. A. Rassolov,  L. V. Slipchenko,  J. E. Subotnik,  T. Van Voorhis,  
 J. M. Herbert,  A. I. Krylov,  P. M. W. Gill,  M. Head-Gordon

 Contributors to earlier versions of Q-Chem not listed above: 
 R. D. Adamson,  J. Baker,  E. F. C. Byrd,  A. K. Chakraborty,  C.-L. Cheng,  
 H. Dachsel,  R. J. Doerksen,  G. Hawkins,  A. Heyden,  S. Hirata,  
 G. Kedziora,  F. J. Keil,  C. Kelley,  P. P. Korambath,  W. Kurlancheek,  
 A. M. Lee,  M. S. Lee,  D. Liotard,  I. Lotan,  P. E. Maslen,  N. Nair,  
 D. Neuhauser,  R. Olson,  B. Peters,  J. Ritchie,  N. E. Schultz,  
 N. Shenvi,  A. C. Simmonett,  K. S. Thanthiriwatte,  Q. Wu,  W. Zhang

 Please cite Q-Chem as follows:
 Y. Shao et al., Mol. Phys. 113, 184-215 (2015)
 DOI: 10.1080/00268976.2014.952696

 Q-Chem 4.4.1 for Intel X86 EM64T Linux

 Parts of Q-Chem use Armadillo 5.200.1 (Boston Tea Smuggler).
 http://arma.sourceforge.net/

 Q-Chem begins on Wed Sep  7 00:02:56 2016  

Host: nid01047
0

     Scratch files written to /dev/shm/eg_qchem/qchem28278.0//
 Parallel job on  16  processors

Checking the input file for inconsistencies... 	...done.

--------------------------------------------------------------
User input:
--------------------------------------------------------------
$comment
<SCF Fix Strategy>{
    "current_method_id": 2, 
    "methods": [
        "increase_iter", 
        "rca_diis", 
        "gwh", 
        "gdm", 
        "rca", 
        "core+rca", 
        "fon"
    ], 
    "version": 2.0
}</SCF Fix Strategy>
$end


$molecule
 -1  2
 S           1.83794975       -1.27576249       -0.14871336
 C           3.23937819       -0.19806434       -0.14823333
 C           2.83626844        1.12431397       -0.14890172
 C           1.43724334        1.31134696       -0.14931220
 C           0.69606563        0.10654716       -0.14908151
 H           0.95807640        2.28459073       -0.14860036
 C          -0.69610330       -0.10652413       -0.14907621
 S          -1.42673079       -1.41131535       -1.13820854
 C          -1.72553634        0.57210135        0.54419290
 C          -3.05621855       -0.99890153       -0.59037678
 C          -3.01863932        0.06705206        0.28911915
 H          -3.91607999        0.47911933        0.74471133
 H           4.24016475       -0.60708034       -0.14954918
 H           3.54430111        1.94981573       -0.14910914
 H          -3.90837912       -1.56098975       -0.94639475
 H          -1.52288688        1.40558912        1.20829850
$end


$rem
         jobtype = opt
        exchange = b3lyp
           basis = 6-31++g**
  max_scf_cycles = 200
      mem_static = 100
       mem_total = 1500
   scf_algorithm = diis
       scf_guess = gwh
$end


$opt
CONSTRAINT
tors 4 5 7 9 -40.0
ENDCONSTRAINT
$end

--------------------------------------------------------------
 Atom   8: ( -1.6466679893, -0.4498757380,  1.0986344358)
         ->( -1.6466679383, -0.4498757751,  1.0986344231)
 Atom  10: ( -3.1796791477, -0.0865037524,  0.2965915789)
         ->( -3.1796791377, -0.0865036044,  0.2965916977)
 Atom  11: ( -2.9595656777,  0.3719857316, -0.9889121351)
         ->( -2.9595657238,  0.3719856109, -0.9889121088)
 Atom   9: ( -1.6000613482,  0.4443599363, -1.3614207562)
         ->( -1.6000614076,  0.4443599562, -1.3614207754)
 Atom   7: ( -0.7034179288,  0.0329640966, -0.3476796520)
         ->( -0.7034179392,  0.0329642345, -0.3476796547)
 Atom  16: ( -1.2574853746,  0.7816518563, -2.3338819520)
         ->( -1.2574854633,  0.7816519620, -2.3338819439)
 Atom  14: (  3.7720812929, -0.6528324418, -1.6550254386)
         ->(  3.7720811798, -0.6528327817, -1.6550254280)
 Atom  15: ( -4.1148847796, -0.2316065336,  0.8192819346)
         ->( -4.1148847566, -0.2316068154,  0.8192819185)
 ----------------------------------------------------------------
             Standard Nuclear Orientation (Angstroms)
    I     Atom           X                Y                Z
 ----------------------------------------------------------------
    1      S       1.6466679383     0.4498757751     1.0986344231
    2      C       3.1796791377     0.0865036044     0.2965916977
    3      C       2.9595657238    -0.3719856109    -0.9889121088
    4      C       1.6000614076    -0.4443599562    -1.3614207754
    5      C       0.7034179392    -0.0329642345    -0.3476796547
    6      H       1.2574854633    -0.7816519620    -2.3338819439
    7      C      -0.7034179392     0.0329642345    -0.3476796547
    8      S      -1.6466679383    -0.4498757751     1.0986344231
    9      C      -1.6000614076     0.4443599562    -1.3614207754
   10      C      -3.1796791377    -0.0865036044     0.2965916977
   11      C      -2.9595657238     0.3719856109    -0.9889121088
   12      H      -3.7720811798     0.6528327817    -1.6550254280
   13      H       4.1148847566     0.2316068154     0.8192819185
   14      H       3.7720811798    -0.6528327817    -1.6550254280
   15      H      -4.1148847566    -0.2316068154     0.8192819185
   16      H      -1.2574854633     0.7816519620    -2.3338819439
 ----------------------------------------------------------------
 Molecular Point Group                 C2    NOp =  2
 Largest Abelian Subgroup              C2    NOp =  2
 Nuclear Repulsion Energy =   626.2552555819 hartrees
 There are       44 alpha and       43 beta electrons
 Requested basis set is 6-31++G(d,p)
 There are 76 shells and 234 basis functions

 Total QAlloc Memory Limit   1500 MB
 Mega-Array Size        98 MB
 MEM_STATIC part       100 MB
 A cutoff of  1.0D-11 yielded   2485 shell pairs
 There are     24495 function pairs
 
 -------------------------------------------------------
 OpenMP Integral Computing Module                       
 Release: version 1.0, May 2013, Q-Chem Inc. Pittsburgh 
 -------------------------------------------------------
 Integral Job Info:
 Integral job number is                      11
 Integral operator is                         1
 short-range coefficients                     0
 long-range coefficients              100000000
 Omega coefficients                           0
 if combine SR and LR in K                    0
 Integral screening is                        0
 Integral computing path is                   2
 max size of driver memory is            800000
 size of driver memory is                593474
 size of scratch memory is             15166112
 max col of scratch BK array               1296
 max len of scratch array in speh3          155
 max len of scratch index in speh4           18
 max int batch size is                      520
 min int batch size is                       52
 fixed nKL is                                52
 max L of basis functions is                  2
 order of int derivative is                   0
 number of shells is                         76
 number of basis is                         234
 number of cartesian basis is               234
 number of contracted shell pairs          2485
 number of primitive shell pairs           8031
 maxK2 (contraction) of shell pair           36
 max number of K2 of shell pair               1
 max number of CS2 of shell pair            258
 max number of PS2 of shell pair           1500
 mem total for path MDJ                   51378
 -------------------------------------------------------
 Smallest overlap matrix eigenvalue = 9.14E-07

 Q-Chem warning in module /project/projectdirs/jcesr/qchem/qc44/cnl_qc441/compile/cori/qc_src/stvman/mkSTV.C, line 257:

 Overlap eigenvalue is smaller than square root of threshold

 Linear dependence detected in AO basis
 Number of orthogonalized atomic orbitals = 233
 Maximum deviation from orthogonality = 6.798E-11

 Scale SEOQF with 1.000000e-01/1.000000e-01/1.000000e-01

 Standard Electronic Orientation quadrupole field applied
 Nucleus-field energy     =     0.0000000058 hartrees
 Constructing guess Fock matrix from core Hamiltonian
 Applying Wolfsberg-Helmholtz approximation
 An unrestricted hybrid HF-DFT SCF calculation will be
 performed using Pulay DIIS extrapolation
 Exchange:     0.2000 Hartree-Fock + 0.0800 Slater + 0.7200 B88
 Correlation:  0.1900 VWN1RPA + 0.8100 LYP
 Using SG-1 standard quadrature grid
 SCF converges when DIIS error is below 1.0E-08
 ---------------------------------------
  Cycle       Energy         DIIS Error
 ---------------------------------------
    1   -1087.9182992705      6.55E-02
    2   -1067.6870905692      4.44E-02
    3   -1018.2183595738      9.03E-02
    4   -1067.8069782264      6.30E-02
    5   -1090.5054274651      4.37E-02
    6   -1096.3368421302      3.25E-02
    7   -1101.2028603211      2.09E-02
    8   -1103.2931352362      1.30E-02
    9   -1104.4696027401      6.70E-03
   10   -1104.6929776235      4.41E-03
   11   -1104.8340167439      5.78E-04
   12   -1104.8366824698      1.40E-04
   13   -1104.8368768578      5.49E-05
   14   -1104.8369395959      2.16E-05
   15   -1104.8369525756      9.71E-06
   16   -1104.8369571102      3.09E-06
   17   -1104.8369726954      1.21E-06
   18   -1104.8369739520      7.76E-07
   19   -1104.8369717627      2.14E-07
   20   -1104.8369709199      1.18E-07
   21   -1104.8369712268      4.42E-08
   22   -1104.8369691876      1.29E-07
   23   -1104.8369691105      1.35E-07
   24   -1104.8369610806      2.43E-07
   25   -1104.8369582042      2.74E-07
   26   -1104.8369584418      4.04E-07
   27   -1104.8369591659      4.32E-07
   28   -1104.8369588018      4.04E-07
   29   -1104.8369596336      3.69E-07
   30   -1104.8369605404      5.21E-07
   31   -1104.8369611944      5.43E-07
   32   -1104.8369604544      4.73E-07
   33   -1104.8369599197      3.06E-07
   34   -1104.8369617058      3.50E-07
   35   -1104.8369690329      1.79E-07
   36   -1104.8369698472      1.17E-07
   37   -1104.8369700726      9.50E-08
   38   -1104.8369688995      6.12E-08
   39   -1104.8369691639      6.74E-08
   40   -1104.8369690923      5.56E-08
   41   -1104.8369686989      3.91E-08
   42   -1104.8369685634      3.03E-08
   43   -1104.8369679124      2.51E-08
   44   -1104.8369676630      3.22E-08
   45   -1104.8369675564      4.36E-08
   46   -1104.8369678798      3.81E-08
   47   -1104.8369678196      3.99E-08
   48   -1104.8369677759      3.68E-08
   49   -1104.8369669240      6.88E-08
   50   -1104.8369712845      9.54E-08
   51   -1104.8369709616      1.16E-07
   52   -1104.8369714877      1.23E-07
   53   -1104.8369691640      1.24E-07
   54   -1104.8369701623      6.52E-08
   55   -1104.8369698440      2.74E-08
   56   -1104.8369698869      1.77E-08
   57   -1104.8369699012      1.55E-08
   58   -1104.8369698084      2.22E-08
   59   -1104.8369699062      8.37E-09 Convergence criterion met
 ---------------------------------------
 <S^2> = 0.7622
 SCF time:  CPU 29.35 s  wall 25.36 s
 SCF   energy in the final basis set = -1104.8369699062
 Total energy in the final basis set = -1104.8369699062
 
 --------------------------------------------------------------
             Orbital Energies (a.u.) and Symmetries
 --------------------------------------------------------------
 
 Alpha MOs, Unrestricted
 -- Occupied --                  
-88.749 -88.749 -10.063 -10.062 -10.056 -10.056 -10.048 -10.048
  1 B     1 A     2 A     2 B     3 B     3 A     4 A     4 B                  
-10.035 -10.035  -7.808  -7.808  -5.772  -5.772  -5.769  -5.769
  5 B     5 A     6 B     6 A     7 A     7 B     8 B     8 A                  
 -5.765  -5.765  -0.723  -0.701  -0.605  -0.579  -0.571  -0.536
  9 A     9 B    10 A    10 B    11 A    12 A    11 B    12 B                  
 -0.447  -0.412  -0.396  -0.369  -0.362  -0.314  -0.260  -0.253
 13 A    14 A    13 B    14 B    15 A    15 B    16 A    17 A                  
 -0.249  -0.241  -0.237  -0.209  -0.207  -0.193  -0.180  -0.115
 16 B    17 B    18 A    19 A    18 B    20 A    19 B    20 B                  
 -0.106  -0.104  -0.056   0.054
 21 B    21 A    22 A    22 B                                                  
 -- Virtual --                   
  0.093   0.097   0.109   0.114   0.123   0.133   0.140   0.151
 23 A    23 B    24 A    24 B    25 A    26 A    25 B    27 A                  
  0.153   0.159   0.169   0.174   0.175   0.177   0.186   0.194
 28 A    26 B    27 B    29 A    28 B    30 A    29 B    31 A                  
  0.202   0.205   0.208   0.215   0.216   0.222   0.230   0.230
 30 B    32 A    31 B    32 B    33 A    34 A    35 A    33 B                  
  0.233   0.235   0.243   0.246   0.249   0.257   0.261   0.270
 34 B    36 A    37 A    35 B    38 A    36 B    39 A    37 B                  
  0.274   0.277   0.281   0.292   0.292   0.301   0.303   0.304
 40 A    38 B    39 B    41 A    40 B    42 A    41 B    43 A                  
  0.317   0.324   0.328   0.336   0.338   0.343   0.359   0.372
 42 B    44 A    43 B    45 A    44 B    46 A    45 B    46 B                  
  0.384   0.385   0.393   0.397   0.405   0.442   0.448   0.448
 47 B    47 A    48 A    48 B    49 A    50 A    51 A    49 B                  
  0.456   0.461   0.487   0.488   0.514   0.535   0.566   0.594
 50 B    52 A    53 A    51 B    52 B    54 A    53 B    55 A                  
  0.612   0.651   0.674   0.676   0.700   0.706   0.713   0.758
 56 A    54 B    57 A    55 B    56 B    57 B    58 A    59 A                  
  0.763   0.771   0.804   0.814   0.820   0.834   0.843   0.864
 58 B    60 A    61 A    59 B    60 B    62 A    63 A    61 B                  
  0.869   0.874   0.890   0.897   0.905   0.905   0.936   0.942
 64 A    62 B    65 A    63 B    66 A    64 B    65 B    67 A                  
  0.977   0.986   1.008   1.037   1.057   1.095   1.101   1.103
 66 B    68 A    67 B    69 A    68 B    70 A    69 B    70 B                  
  1.109   1.116   1.116   1.122   1.136   1.146   1.157   1.196
 71 A    72 A    71 B    72 B    73 A    73 B    74 A    75 A                  
  1.200   1.220   1.237   1.243   1.262   1.269   1.270   1.321
 74 B    76 A    75 B    77 A    78 A    76 B    77 B    79 A                  
  1.322   1.340   1.385   1.415   1.485   1.507   1.511   1.514
 78 B    80 A    79 B    81 A    80 B    82 A    81 B    83 A                  
  1.521   1.544   1.602   1.641   1.656   1.709   1.741   1.836
 82 B    84 A    83 B    84 B    85 A    86 A    85 B    86 B                  
  1.844   1.892   1.978   2.002   2.042   2.048   2.059   2.089
 87 A    87 B    88 A    89 A    90 A    88 B    89 B    91 A                  
  2.103   2.114   2.167   2.170   2.211   2.217   2.278   2.289
 92 A    90 B    91 B    93 A    94 A    92 B    95 A    93 B                  
  2.314   2.340   2.369   2.406   2.412   2.452   2.515   2.516
 94 B    96 A    95 B    97 A    96 B    98 A    99 A    97 B                  
  2.576   2.598   2.618   2.622   2.645   2.664   2.674   2.696
 98 B   100 A    99 B   101 A   100 B   102 A   101 B   103 A                  
  2.734   2.742   2.750   2.821   2.842   2.867   2.931   2.944
104 A   102 B   105 A   103 B   104 B   106 A   107 A   105 B                  
  3.007   3.061   3.130   3.292   3.362   3.418   3.419   3.557
108 A   106 B   107 B   109 A   108 B   109 B   110 A   111 A                  
  3.579   3.862   3.893   4.109   4.158   4.426   4.456   4.464
110 B   112 A   111 B   113 A   112 B   114 A   113 B   115 A                  
  4.478   4.578   4.683   4.807   4.882
114 B   116 A   115 B   117 A   116 B                                          
 
 Beta MOs, Unrestricted
 -- Occupied --                  
-88.748 -88.748 -10.061 -10.060 -10.053 -10.053 -10.049 -10.049
  1 B     1 A     2 A     2 B     3 B     3 A     4 A     4 B                  
-10.033 -10.033  -7.807  -7.807  -5.772  -5.772  -5.769  -5.769
  5 B     5 A     6 B     6 A     7 A     7 B     8 B     8 A                  
 -5.763  -5.763  -0.719  -0.698  -0.600  -0.576  -0.568  -0.531
  9 A     9 B    10 A    10 B    11 A    12 A    11 B    12 B                  
 -0.440  -0.410  -0.392  -0.367  -0.360  -0.313  -0.258  -0.251
 13 A    14 A    13 B    14 B    15 A    15 B    16 A    17 A                  
 -0.246  -0.234  -0.233  -0.204  -0.200  -0.190  -0.177  -0.102
 16 B    18 A    17 B    18 B    19 A    20 A    19 B    20 B                  
 -0.096  -0.094  -0.039
 21 A    21 B    22 A                                                          
 -- Virtual --                   
  0.093   0.096   0.107   0.109   0.114   0.123   0.140   0.142
 23 A    22 B    23 B    24 A    24 B    25 A    25 B    26 A                  
  0.151   0.157   0.159   0.171   0.176   0.177   0.177   0.188
 27 A    28 A    26 B    27 B    29 A    28 B    30 A    29 B                  
  0.198   0.203   0.205   0.208   0.217   0.217   0.223   0.230
 31 A    30 B    32 A    31 B    33 A    32 B    34 A    33 B                  
  0.231   0.234   0.236   0.244   0.247   0.251   0.259   0.263
 35 A    34 B    36 A    37 A    35 B    38 A    36 B    39 A                  
  0.271   0.275   0.278   0.282   0.293   0.294   0.301   0.305
 37 B    40 A    38 B    39 B    40 B    41 A    42 A    41 B                  
  0.308   0.317   0.324   0.328   0.337   0.340   0.344   0.360
 43 A    42 B    44 A    43 B    45 A    44 B    46 A    45 B                  
  0.373   0.385   0.385   0.393   0.398   0.405   0.443   0.450
 46 B    47 B    47 A    48 A    48 B    49 A    50 A    49 B                  
  0.452   0.458   0.461   0.487   0.488   0.517   0.536   0.568
 51 A    50 B    52 A    53 A    51 B    52 B    54 A    53 B                  
  0.595   0.614   0.653   0.676   0.678   0.702   0.708   0.716
 55 A    56 A    54 B    57 A    55 B    56 B    57 B    58 A                  
  0.760   0.765   0.772   0.814   0.818   0.831   0.838   0.846
 59 A    58 B    60 A    61 A    59 B    60 B    62 A    63 A                  
  0.866   0.873   0.877   0.892   0.902   0.907   0.910   0.938
 61 B    64 A    62 B    65 A    63 B    64 B    66 A    65 B                  
  0.943   0.984   0.993   1.014   1.039   1.059   1.097   1.103
 67 A    66 B    68 A    67 B    69 A    68 B    70 A    69 B                  
  1.104   1.114   1.116   1.118   1.123   1.137   1.147   1.160
 70 B    71 A    72 A    71 B    72 B    73 A    73 B    74 A                  
  1.198   1.202   1.224   1.241   1.245   1.264   1.272   1.274
 75 A    74 B    76 A    75 B    77 A    78 A    76 B    77 B                  
  1.323   1.324   1.343   1.388   1.418   1.488   1.511   1.517
 78 B    79 A    80 A    79 B    81 A    80 B    82 A    81 B                  
  1.518   1.525   1.546   1.604   1.643   1.657   1.715   1.745
 83 A    82 B    84 A    83 B    84 B    85 A    86 A    85 B                  
  1.846   1.854   1.900   1.981   2.003   2.047   2.050   2.061
 86 B    87 A    87 B    88 A    89 A    90 A    88 B    89 B                  
  2.091   2.107   2.119   2.171   2.172   2.215   2.218   2.285
 91 A    92 A    90 B    91 B    93 A    94 A    92 B    95 A                  
  2.297   2.320   2.348   2.376   2.410   2.416   2.456   2.517
 93 B    94 B    96 A    95 B    97 A    96 B    98 A    99 A                  
  2.518   2.581   2.600   2.619   2.625   2.647   2.666   2.679
 97 B    98 B   100 A    99 B   101 A   100 B   102 A   101 B                  
  2.701   2.737   2.746   2.754   2.822   2.845   2.870   2.934
103 A   104 A   102 B   105 A   103 B   104 B   106 A   107 A                  
  2.947   3.009   3.063   3.132   3.292   3.363   3.419   3.420
105 B   108 A   106 B   107 B   109 A   108 B   109 B   110 A                  
  3.558   3.580   3.863   3.894   4.111   4.159   4.430   4.460
111 A   110 B   112 A   111 B   113 A   112 B   114 A   113 B                  
  4.466   4.481   4.584   4.688   4.809   4.885
115 A   114 B   116 A   115 B   117 A   116 B                                  
 --------------------------------------------------------------
 
          Ground-State Mulliken Net Atomic Charges

     Atom                 Charge (a.u.)    Spin (a.u.)
  --------------------------------------------------------
      1 S                    -0.251161       0.125383
      2 C                    -0.108673       0.232579
      3 C                    -0.305913      -0.070339
      4 C                     0.098222       0.207746
      5 C                    -0.243357       0.017167
      6 H                     0.092461      -0.002360
      7 C                    -0.243357       0.017167
      8 S                    -0.251161       0.125383
      9 C                     0.098222       0.207746
     10 C                    -0.108673       0.232579
     11 C                    -0.305913      -0.070339
     12 H                     0.074163       0.003035
     13 H                     0.144258      -0.013212
     14 H                     0.074163       0.003035
     15 H                     0.144258      -0.013212
     16 H                     0.092461      -0.002360
  --------------------------------------------------------
  Sum of atomic charges =    -1.000000
  Sum of spin   charges =     1.000000

 -----------------------------------------------------------------
                    Cartesian Multipole Moments
 -----------------------------------------------------------------
    Charge (ESU x 10^10)
                -4.8032
    Dipole Moment (Debye)
         X      -0.0000      Y       0.0000      Z      -0.4133
       Tot       0.4133
    Quadrupole Moments (Debye-Ang)
        XX     -99.4055     XY      -0.4252     YY     -86.8557
        XZ       0.0000     YZ       0.0000     ZZ     -83.7627
    Octopole Moments (Debye-Ang^2)
       XXX       0.0000    XXY       0.0000    XYY      -0.0000
       YYY      -0.0000    XXZ       9.0233    XYZ       5.2127
       YYZ       3.4481    XZZ      -0.0000    YZZ      -0.0000
       ZZZ       1.1995
    Hexadecapole Moments (Debye-Ang^3)
      XXXX   -2473.3246   XXXY       1.0808   XXYY    -489.6326
      XYYY       9.3962   YYYY    -220.5845   XXXZ       0.0000
      XXYZ       0.0000   XYYZ       0.0000   YYYZ       0.0000
      XXZZ    -503.2953   XYZZ      -3.8311   YYZZ    -146.1820
      XZZZ       0.0000   YZZZ       0.0000   ZZZZ    -629.8920
 -----------------------------------------------------------------
 Calculating analytic gradient of the SCF energy
 Gradient of SCF Energy
            1           2           3           4           5           6
    1  -0.0038330   0.0008009  -0.0007494   0.0013457  -0.0055881   0.0007796
    2   0.0024103  -0.0002362  -0.0035514  -0.0056912   0.0028021   0.0017561
    3  -0.0013432  -0.0022803   0.0025838   0.0003224   0.0018517  -0.0007459
            7           8           9          10          11          12
    1   0.0055881   0.0038330  -0.0013457  -0.0008009   0.0007494   0.0000277
    2  -0.0028021  -0.0024103   0.0056912   0.0002362   0.0035514  -0.0003037
    3   0.0018517  -0.0013432   0.0003224  -0.0022803   0.0025838   0.0000728
           13          14          15          16
    1  -0.0001498  -0.0000277   0.0001498  -0.0007796
    2   0.0021509   0.0003037  -0.0021509  -0.0017561
    3  -0.0004613   0.0000728  -0.0004613  -0.0007459
 Max gradient component =       5.691E-03
 RMS gradient           =       2.364E-03
 Gradient time:  CPU 1.76 s  wall 1.76 s
 Geometry Optimization Parameters
   NAtoms,    NIC,     NZ,  NCons,   NDum,   NFix, NCnnct, MaxDiis
       16     111       0       1       0       0       0       0


** CONSTRAINED OPTIMIZATION IN DELOCALIZED INTERNAL COORDINATES **
   Searching for a Minimum

   Optimization Cycle:   1

                       Coordinates (Angstroms)
     ATOM                X               Y               Z
      1  S         1.6466679383    0.4498757751    1.0986344231
      2  C         3.1796791377    0.0865036044    0.2965916977
      3  C         2.9595657238   -0.3719856109   -0.9889121088
      4  C         1.6000614076   -0.4443599562   -1.3614207754
      5  C         0.7034179392   -0.0329642345   -0.3476796547
      6  H         1.2574854633   -0.7816519620   -2.3338819439
      7  C        -0.7034179392    0.0329642345   -0.3476796547
      8  S        -1.6466679383   -0.4498757751    1.0986344231
      9  C        -1.6000614076    0.4443599562   -1.3614207754
     10  C        -3.1796791377   -0.0865036044    0.2965916977
     11  C        -2.9595657238    0.3719856109   -0.9889121088
     12  H        -3.7720811798    0.6528327817   -1.6550254280
     13  H         4.1148847566    0.2316068154    0.8192819185
     14  H         3.7720811798   -0.6528327817   -1.6550254280
     15  H        -4.1148847566   -0.2316068154    0.8192819185
     16  H        -1.2574854633    0.7816519620   -2.3338819439
   Point Group: c2    Number of degrees of freedom:    22


   Energy is  -1104.836969906

              Constraints and their Current Values
                                        Value     Constraint
   Dihedral:        4   5   7   9      -40.000      -40.000

 Attempting to Generate Delocalized Internal Coordinates

 21 Hessian modes will be used to form the next step
  Hessian Eigenvalues:
     0.045000    0.045000    0.045000    0.045000    0.045000    0.045000
     0.160000    0.160000    0.160000    0.221184    0.237470    0.250000
     0.264210    0.283931    0.350974    0.354198    0.358566    0.414224
     0.425056    0.442595    0.471396

 Minimum Search - Taking Simple RFO Step
 Searching for Lamda that Minimizes Along All modes
 Value Taken    Lamda =  -0.00254758
 Step Taken.  Stepsize is  0.204485

                             Maximum     Tolerance    Cnvgd?
         Gradient           0.008737      0.000300      NO
         Displacement       0.158259      0.001200      NO
         Energy change     *********      0.000001      NO


 New Cartesian Coordinates Obtained by Inverse Iteration

 Displacement from previous Coordinates is:  0.371323
 ----------------------------------------------------------------
             Standard Nuclear Orientation (Angstroms)
    I     Atom           X                Y                Z
 ----------------------------------------------------------------
    1      S       1.6730763920     0.4141313932     1.1234492936
    2      C       3.1953433577     0.0659534638     0.2981434720
    3      C       2.9605717906    -0.3303039178    -1.0066196287
    4      C       1.5953061091    -0.4035091656    -1.3599900085
    5      C       0.7084734949    -0.0131814511    -0.3330838127
    6      H       1.2373852617    -0.7352453868    -2.3290305161
    7      C      -0.7084734949     0.0131814511    -0.3330838127
    8      S      -1.6730763920    -0.4141313932     1.1234492936
    9      C      -1.5953061091     0.4035091656    -1.3599900085
   10      C      -3.1953433577    -0.0659534638     0.2981434720
   11      C      -2.9605717906     0.3303039178    -1.0066196287
   12      H      -3.7638471231     0.6020207927    -1.6879013462
   13      H       4.1360078851     0.1616064860     0.8226206752
   14      H       3.7638471231    -0.6020207927    -1.6879013462
   15      H      -4.1360078851    -0.1616064860     0.8226206752
   16      H      -1.2373852617     0.7352453868    -2.3290305161
 ----------------------------------------------------------------
 Molecular Point Group                 C2    NOp =  2
 Largest Abelian Subgroup              C2    NOp =  2
 Nuclear Repulsion Energy =   624.8076306478 hartrees
 There are       44 alpha and       43 beta electrons
 Applying Cartesian multipole field
    Component          Value
    ---------          -----
     (2,0,0)        1.00000E-11
     (0,2,0)        2.00000E-11
     (0,0,2)       -3.00000E-11
 Nucleus-field energy     =     0.0000000056 hartrees
 Requested basis set is 6-31++G(d,p)
 There are 76 shells and 234 basis functions
 A cutoff of  1.0D-11 yielded   2483 shell pairs
 There are     24487 function pairs
 Smallest overlap matrix eigenvalue = 1.09E-06

 Q-Chem warning in module /project/projectdirs/jcesr/qchem/qc44/cnl_qc441/compile/cori/qc_src/stvman/mkSTV.C, line 257:

 Overlap eigenvalue is smaller than square root of threshold

 No. of orbitals has changed due to linear dependencies.  Generating new SCF guess.
 Constructing guess Fock matrix from core Hamiltonian
 Applying Wolfsberg-Helmholtz approximation
 An unrestricted hybrid HF-DFT SCF calculation will be
 performed using Pulay DIIS extrapolation
 Exchange:     0.2000 Hartree-Fock + 0.0800 Slater + 0.7200 B88
 Correlation:  0.1900 VWN1RPA + 0.8100 LYP
 Using SG-1 standard quadrature grid
 SCF converges when DIIS error is below 1.0E-08
 Geometry optimization detected.  Setting ReadMinima to 0
 Setting SaveMinima to 0
 ---------------------------------------
  Cycle       Energy         DIIS Error
 ---------------------------------------
    1   -1088.2925857193      6.49E-02
    2   -1068.5839418990      4.40E-02
    3   -1016.7224809904      9.17E-02
    4   -1067.4644830068      6.56E-02
    5   -1086.8770742472      4.79E-02
    6   -1095.4415626933      3.45E-02
    7   -1100.3767115738      2.33E-02
    8   -1102.8943615335      1.46E-02
    9   -1104.0710733378      9.31E-03
   10   -1104.7141683371      4.03E-03
   11   -1104.8048372128      2.10E-03
   12   -1104.8382985738      2.24E-04
   13   -1104.8386875354      1.16E-04
   14   -1104.8388059621      2.98E-05
   15   -1104.8388233305      7.88E-06
   16   -1104.8388308812      3.27E-06
   17   -1104.8388340911      1.58E-06
   18   -1104.8388350065      7.71E-07
   19   -1104.8388351578      1.98E-07
   20   -1104.8388351713      6.20E-08
   21   -1104.8388351724      4.78E-08
   22   -1104.8388351724      2.02E-08
   23   -1104.8388351727      5.22E-09 Convergence criterion met
 ---------------------------------------
 <S^2> = 0.7623
 SCF time:  CPU 15.82 s  wall 14.16 s
 SCF   energy in the final basis set = -1104.8388351727
 Total energy in the final basis set = -1104.8388351727
 
 --------------------------------------------------------------
             Orbital Energies (a.u.) and Symmetries
 --------------------------------------------------------------
 
 Alpha MOs, Unrestricted
 -- Occupied --                  
-88.750 -88.750 -10.064 -10.064 -10.056 -10.056 -10.048 -10.048
  1 B     1 A     2 A     2 B     3 B     3 A     4 B     4 A                  
-10.035 -10.035  -7.809  -7.809  -5.773  -5.773  -5.770  -5.770
  5 B     5 A     6 B     6 A     7 B     7 A     8 B     8 A                  
 -5.766  -5.766  -0.722  -0.702  -0.604  -0.580  -0.571  -0.536
  9 A     9 B    10 A    10 B    11 A    12 A    11 B    12 B                  
 -0.446  -0.412  -0.396  -0.369  -0.362  -0.315  -0.261  -0.253
 13 A    14 A    13 B    14 B    15 A    15 B    16 A    17 A                  
 -0.249  -0.239  -0.237  -0.209  -0.209  -0.193  -0.179  -0.117
 16 B    17 B    18 A    19 A    18 B    20 A    19 B    20 B                  
 -0.106  -0.104  -0.056   0.053
 21 B    21 A    22 A    22 B                                                  
 -- Virtual --                   
  0.093   0.096   0.109   0.114   0.124   0.135   0.140   0.151
 23 A    23 B    24 A    24 B    25 A    26 A    25 B    27 A                  
  0.151   0.158   0.169   0.172   0.175   0.177   0.182   0.195
 28 A    26 B    27 B    29 A    28 B    30 A    29 B    31 A                  
  0.199   0.205   0.206   0.211   0.217   0.223   0.228   0.230
 30 B    31 B    32 A    32 B    33 A    34 A    33 B    35 A                  
  0.232   0.234   0.243   0.246   0.249   0.258   0.259   0.271
 34 B    36 A    37 A    35 B    38 A    36 B    39 A    37 B                  
  0.271   0.276   0.281   0.288   0.290   0.300   0.302   0.305
 40 A    38 B    39 B    40 B    41 A    41 B    42 A    43 A                  
  0.309   0.322   0.328   0.333   0.336   0.341   0.347   0.363
 42 B    44 A    43 B    45 A    44 B    46 A    45 B    46 B                  
  0.380   0.380   0.392   0.397   0.405   0.442   0.448   0.448
 47 B    47 A    48 B    48 A    49 A    50 A    49 B    51 A                  
  0.452   0.460   0.465   0.487   0.494   0.514   0.533   0.582
 50 B    52 A    51 B    53 A    52 B    53 B    54 A    54 B                  
  0.592   0.611   0.650   0.674   0.677   0.702   0.713   0.714
 55 A    56 A    55 B    57 A    56 B    57 B    58 A    58 B                  
  0.757   0.768   0.769   0.803   0.815   0.820   0.829   0.843
 59 A    60 A    59 B    61 A    60 B    61 B    62 A    63 A                  
  0.860   0.869   0.875   0.885   0.892   0.904   0.904   0.942
 62 B    64 A    63 B    65 A    64 B    66 A    65 B    67 A                  
  0.944   0.975   0.985   1.005   1.036   1.056   1.091   1.100
 66 B    67 B    68 A    68 B    69 A    69 B    70 A    70 B                  
  1.101   1.110   1.116   1.121   1.135   1.146   1.155   1.162
 71 B    71 A    72 A    72 B    73 A    73 B    74 A    74 B                  
  1.192   1.203   1.219   1.243   1.243   1.261   1.267   1.270
 75 A    75 B    76 A    77 A    76 B    78 A    77 B    78 B                  
  1.318   1.339   1.373   1.400   1.411   1.483   1.505   1.515
 79 A    80 A    79 B    80 B    81 A    81 B    82 A    82 B                  
  1.515   1.520   1.549   1.603   1.635   1.649   1.708   1.744
 83 A    83 B    84 A    84 B    85 B    85 A    86 A    86 B                  
  1.831   1.844   1.874   1.973   2.007   2.039   2.053   2.063
 87 B    87 A    88 B    88 A    89 A    90 A    89 B    90 B                  
  2.087   2.111   2.116   2.163   2.166   2.212   2.216   2.275
 91 A    92 A    91 B    93 A    92 B    93 B    94 A    95 A                  
  2.293   2.315   2.326   2.371   2.401   2.415   2.452   2.515
 94 B    95 B    96 A    96 B    97 A    97 B    98 A    99 A                  
  2.517   2.575   2.599   2.611   2.624   2.648   2.670   2.671
 98 B    99 B   100 A   101 A   100 B   101 B   102 A   102 B                  
  2.693   2.732   2.747   2.748   2.824   2.837   2.868   2.928
103 A   104 A   103 B   105 A   104 B   105 B   106 A   107 A                  
  2.945   3.009   3.055   3.125   3.291   3.359   3.418   3.418
106 B   108 A   107 B   108 B   109 A   109 B   110 B   110 A                  
  3.555   3.577   3.860   3.892   4.106   4.156   4.425   4.462
111 A   111 B   112 A   112 B   113 A   113 B   114 A   115 A                  
  4.480   4.491   4.574   4.688   4.805   4.877
114 B   115 B   116 A   116 B   117 A   117 B                                  
 
 Beta MOs, Unrestricted
 -- Occupied --                  
-88.749 -88.749 -10.062 -10.062 -10.053 -10.053 -10.049 -10.049
  1 B     1 A     2 A     2 B     3 B     3 A     4 B     4 A                  
-10.033 -10.033  -7.808  -7.808  -5.773  -5.773  -5.769  -5.769
  5 B     5 A     6 B     6 A     7 B     7 A     8 B     8 A                  
 -5.764  -5.764  -0.719  -0.698  -0.599  -0.576  -0.568  -0.532
  9 A     9 B    10 A    10 B    11 A    12 A    11 B    12 B                  
 -0.439  -0.410  -0.393  -0.366  -0.360  -0.314  -0.259  -0.251
 13 A    14 A    13 B    14 B    15 A    15 B    16 A    17 A                  
 -0.246  -0.234  -0.231  -0.206  -0.200  -0.190  -0.176  -0.102
 16 B    18 A    17 B    18 B    19 A    20 A    19 B    20 B                  
 -0.096  -0.096  -0.039
 21 A    21 B    22 A                                                          
 -- Virtual --                   
  0.093   0.096   0.106   0.109   0.114   0.124   0.140   0.143
 23 A    22 B    23 B    24 A    24 B    25 A    25 B    26 A                  
  0.151   0.156   0.158   0.171   0.174   0.176   0.177   0.184
 27 A    28 A    26 B    27 B    29 A    28 B    30 A    29 B                  
  0.199   0.201   0.205   0.206   0.213   0.217   0.224   0.228
 31 A    30 B    31 B    32 A    32 B    33 A    34 A    33 B                  
  0.231   0.233   0.235   0.244   0.247   0.252   0.258   0.261
 35 A    34 B    36 A    37 A    35 B    38 A    36 B    39 A                  
  0.272   0.273   0.277   0.283   0.289   0.293   0.301   0.303
 37 B    40 A    38 B    39 B    40 B    41 A    41 B    42 A                  
  0.307   0.310   0.322   0.329   0.333   0.337   0.342   0.347
 43 A    42 B    44 A    43 B    45 A    44 B    46 A    45 B                  
  0.363   0.380   0.381   0.392   0.397   0.405   0.443   0.450
 46 B    47 B    47 A    48 B    48 A    49 A    50 A    49 B                  
  0.451   0.453   0.461   0.467   0.488   0.494   0.517   0.534
 51 A    50 B    52 A    51 B    53 A    52 B    53 B    54 A                  
  0.584   0.593   0.613   0.653   0.677   0.679   0.704   0.716
 54 B    55 A    56 A    55 B    57 A    56 B    57 B    58 A                  
  0.717   0.759   0.770   0.771   0.814   0.819   0.831   0.833
 58 B    59 A    60 A    59 B    61 A    60 B    61 B    62 A                  
  0.845   0.863   0.872   0.877   0.887   0.897   0.906   0.909
 63 A    62 B    64 A    63 B    65 A    64 B    65 B    66 A                  
  0.943   0.946   0.982   0.992   1.012   1.038   1.058   1.093
 67 A    66 B    67 B    68 A    68 B    69 A    69 B    70 A                  
  1.101   1.104   1.113   1.118   1.122   1.136   1.147   1.157
 70 B    71 B    71 A    72 A    72 B    73 A    73 B    74 A                  
  1.163   1.194   1.205   1.222   1.244   1.247   1.263   1.272
 74 B    75 A    75 B    76 A    77 A    76 B    78 A    77 B                  
  1.274   1.322   1.342   1.376   1.402   1.414   1.486   1.510
 78 B    79 A    80 A    79 B    80 B    81 A    81 B    82 A                  
  1.518   1.520   1.523   1.552   1.605   1.638   1.651   1.713
 83 A    82 B    83 B    84 A    84 B    85 B    85 A    86 A                  
  1.748   1.840   1.854   1.883   1.976   2.009   2.044   2.054
 86 B    87 B    87 A    88 B    88 A    89 A    90 A    89 B                  
  2.065   2.089   2.115   2.121   2.166   2.170   2.213   2.220
 90 B    91 A    92 A    91 B    93 A    92 B    93 B    94 A                  
  2.282   2.301   2.319   2.335   2.378   2.405   2.419   2.456
 95 A    94 B    95 B    96 A    96 B    97 A    97 B    98 A                  
  2.517   2.519   2.580   2.601   2.615   2.625   2.650   2.672
 99 A    98 B    99 B   100 A   101 A   100 B   101 B   102 A                  
  2.676   2.697   2.734   2.751   2.752   2.825   2.840   2.872
102 B   103 A   104 A   103 B   105 A   104 B   105 B   106 A                  
  2.930   2.948   3.012   3.057   3.126   3.292   3.360   3.418
107 A   106 B   108 A   107 B   108 B   109 A   109 B   110 B                  
  3.418   3.556   3.579   3.861   3.893   4.108   4.158   4.430
110 A   111 A   111 B   112 A   112 B   113 A   113 B   114 A                  
  4.464   4.484   4.495   4.580   4.693   4.807   4.880
115 A   114 B   115 B   116 A   116 B   117 A   117 B                          
 --------------------------------------------------------------
 
          Ground-State Mulliken Net Atomic Charges

     Atom                 Charge (a.u.)    Spin (a.u.)
  --------------------------------------------------------
      1 S                    -0.236272       0.122259
      2 C                    -0.167846       0.235261
      3 C                    -0.359226      -0.065923
      4 C                     0.066230       0.199821
      5 C                    -0.105281       0.021262
      6 H                     0.094685      -0.003366
      7 C                    -0.105281       0.021262
      8 S                    -0.236272       0.122259
      9 C                     0.066230       0.199821
     10 C                    -0.167846       0.235261
     11 C                    -0.359226      -0.065924
     12 H                     0.070052       0.003214
     13 H                     0.137657      -0.012527
     14 H                     0.070052       0.003214
     15 H                     0.137657      -0.012527
     16 H                     0.094685      -0.003366
  --------------------------------------------------------
  Sum of atomic charges =    -1.000000
  Sum of spin   charges =     1.000000

 -----------------------------------------------------------------
                    Cartesian Multipole Moments
 -----------------------------------------------------------------
    Charge (ESU x 10^10)
                -4.8032
    Dipole Moment (Debye)
         X       0.0000      Y       0.0000      Z      -0.4528
       Tot       0.4528
    Quadrupole Moments (Debye-Ang)
        XX     -99.6573     XY      -0.9752     YY     -86.8315
        XZ       0.0000     YZ       0.0000     ZZ     -83.8388
    Octopole Moments (Debye-Ang^2)
       XXX       0.0000    XXY       0.0000    XYY       0.0000
       YYY      -0.0000    XXZ       8.5762    XYZ       4.6153
       YYZ       2.6097    XZZ      -0.0000    YZZ      -0.0000
       ZZZ      -0.9740
    Hexadecapole Moments (Debye-Ang^3)
      XXXX   -2497.0227   XXXY      -9.6139   XXYY    -493.9975
      XYYY       6.8246   YYYY    -206.3393   XXXZ       0.0000
      XXYZ       0.0000   XYYZ      -0.0000   YYYZ       0.0000
      XXZZ    -507.5274   XYZZ      -5.3186   YYZZ    -147.3474
      XZZZ       0.0000   YZZZ       0.0000   ZZZZ    -641.5314
 -----------------------------------------------------------------
 Calculating analytic gradient of the SCF energy
 Gradient of SCF Energy
            1           2           3           4           5           6
    1  -0.0004689   0.0008934  -0.0000293  -0.0001501   0.0007636   0.0001716
    2   0.0020878  -0.0009900  -0.0000430  -0.0064803   0.0059050   0.0010465
    3  -0.0008436  -0.0002216   0.0009569   0.0023428  -0.0016637  -0.0003366
            7           8           9          10          11          12
    1  -0.0007636   0.0004689   0.0001501  -0.0008934   0.0000293  -0.0000709
    2  -0.0059050  -0.0020878   0.0064803   0.0009900   0.0000430   0.0000332
    3  -0.0016637  -0.0008436   0.0023428  -0.0002216   0.0009569   0.0000201
           13          14          15          16
    1   0.0001209   0.0000709  -0.0001209  -0.0001716
    2   0.0011390  -0.0000332  -0.0011390  -0.0010465
    3  -0.0002542   0.0000201  -0.0002542  -0.0003366
 Max gradient component =       6.480E-03
 RMS gradient           =       2.004E-03
 Gradient time:  CPU 1.75 s  wall 1.76 s
 Geometry Optimization Parameters
   NAtoms,    NIC,     NZ,  NCons,   NDum,   NFix, NCnnct, MaxDiis
       16     111       0       1       0       0       0       0

 Cartesian Hessian Update
 Hessian Updated using BFGS Update


** CONSTRAINED OPTIMIZATION IN DELOCALIZED INTERNAL COORDINATES **
   Searching for a Minimum

   Optimization Cycle:   2

                       Coordinates (Angstroms)
     ATOM                X               Y               Z
      1  S         1.6730763920    0.4141313932    1.1234492936
      2  C         3.1953433577    0.0659534638    0.2981434720
      3  C         2.9605717906   -0.3303039178   -1.0066196287
      4  C         1.5953061091   -0.4035091656   -1.3599900085
      5  C         0.7084734949   -0.0131814511   -0.3330838127
      6  H         1.2373852617   -0.7352453868   -2.3290305161
      7  C        -0.7084734949    0.0131814511   -0.3330838127
      8  S        -1.6730763920   -0.4141313932    1.1234492936
      9  C        -1.5953061091    0.4035091656   -1.3599900085
     10  C        -3.1953433577   -0.0659534638    0.2981434720
     11  C        -2.9605717906    0.3303039178   -1.0066196287
     12  H        -3.7638471231    0.6020207927   -1.6879013462
     13  H         4.1360078851    0.1616064860    0.8226206752
     14  H         3.7638471231   -0.6020207927   -1.6879013462
     15  H        -4.1360078851   -0.1616064860    0.8226206752
     16  H        -1.2373852617    0.7352453868   -2.3290305161
   Point Group: c2    Number of degrees of freedom:    22


   Energy is  -1104.838835173

              Constraints and their Current Values
                                        Value     Constraint
   Dihedral:        4   5   7   9      -40.000      -40.000
 Hessian Updated using BFGS Update

 17 Hessian modes will be used to form the next step
  Hessian Eigenvalues:
     0.022429    0.048281    0.159987    0.160000    0.160172    0.220272
     0.237300    0.251954    0.270906    0.284093    0.351003    0.354190
     0.358589    0.413729    0.426283    0.470232    0.479935

 Minimum Search - Taking Simple RFO Step
 Searching for Lamda that Minimizes Along All modes
 Value Taken    Lamda =  -0.00137954
 Step Taken.  Stepsize is  0.237220

                             Maximum     Tolerance    Cnvgd?
         Gradient           0.004339      0.000300      NO
         Displacement       0.183200      0.001200      NO
         Energy change     -0.001865      0.000001      NO


 New Cartesian Coordinates Obtained by Inverse Iteration

 Displacement from previous Coordinates is:  0.384922
 ----------------------------------------------------------------
             Standard Nuclear Orientation (Angstroms)
    I     Atom           X                Y                Z
 ----------------------------------------------------------------
    1      S       1.6762421611     0.3662306096     1.1478098152
    2      C       3.1922615082     0.0460157230     0.3030140310
    3      C       2.9559145286    -0.2904751555    -1.0193502421
    4      C       1.5898160812    -0.3526426359    -1.3670977037
    5      C       0.7081672308     0.0114969847    -0.3274430499
    6      H       1.2240827243    -0.6777913062    -2.3357107828
    7      C      -0.7081672308    -0.0114969847    -0.3274430499
    8      S      -1.6762421611    -0.3662306096     1.1478098152
    9      C      -1.5898160812     0.3526426359    -1.3670977037
   10      C      -3.1922615082    -0.0460157230     0.3030140310
   11      C      -2.9559145286     0.2904751555    -1.0193502421
   12      H      -3.7553112214     0.5524665775    -1.7088293244
   13      H       4.1323897823     0.0862593352     0.8351953852
   14      H       3.7553112214    -0.5524665775    -1.7088293244
   15      H      -4.1323897823    -0.0862593352     0.8351953852
   16      H      -1.2240827243     0.6777913062    -2.3357107828
 ----------------------------------------------------------------
 Molecular Point Group                 C2    NOp =  2
 Largest Abelian Subgroup              C2    NOp =  2
 Nuclear Repulsion Energy =   625.0421205849 hartrees
 There are       44 alpha and       43 beta electrons
 Applying Cartesian multipole field
    Component          Value
    ---------          -----
     (2,0,0)        1.00000E-11
     (0,2,0)        2.00000E-11
     (0,0,2)       -3.00000E-11
 Nucleus-field energy     =     0.0000000051 hartrees
 Requested basis set is 6-31++G(d,p)
 There are 76 shells and 234 basis functions
 A cutoff of  1.0D-11 yielded   2489 shell pairs
 There are     24595 function pairs
 Smallest overlap matrix eigenvalue = 1.35E-06

 Q-Chem warning in module /project/projectdirs/jcesr/qchem/qc44/cnl_qc441/compile/cori/qc_src/stvman/mkSTV.C, line 257:

 Overlap eigenvalue is smaller than square root of threshold

 Guess MOs from SCF MO coefficient file
 Reading MOs from coefficient file
 Reading MOs from coefficient file
 An unrestricted hybrid HF-DFT SCF calculation will be
 performed using Pulay DIIS extrapolation
 Exchange:     0.2000 Hartree-Fock + 0.0800 Slater + 0.7200 B88
 Correlation:  0.1900 VWN1RPA + 0.8100 LYP
 Using SG-1 standard quadrature grid
 SCF converges when DIIS error is below 1.0E-08
 Geometry optimization detected.  Setting ReadMinima to 0
 Setting SaveMinima to 0
 ---------------------------------------
  Cycle       Energy         DIIS Error
 ---------------------------------------
    1   -1104.8276823062      2.05E-03
    2   -1104.8391215384      2.22E-04
    3   -1104.8382899724      3.96E-04
    4   -1104.8396562580      4.86E-05
    5   -1104.8396713934      2.16E-05
    6   -1104.8396736202      1.47E-05
    7   -1104.8396754892      2.05E-06
    8   -1104.8396755560      6.21E-07
    9   -1104.8396755674      2.80E-07
   10   -1104.8396755720      1.10E-07
   11   -1104.8396755744      5.22E-08
   12   -1104.8396755758      2.76E-08
   13   -1104.8396755745      8.31E-09 Convergence criterion met
 ---------------------------------------
 <S^2> = 0.7626
 SCF time:  CPU 8.55 s  wall 7.67 s
 SCF   energy in the final basis set = -1104.8396755745
 Total energy in the final basis set = -1104.8396755745
 
 --------------------------------------------------------------
             Orbital Energies (a.u.) and Symmetries
 --------------------------------------------------------------
 
 Alpha MOs, Unrestricted
 -- Occupied --                  
-88.750 -88.750 -10.064 -10.064 -10.056 -10.056 -10.048 -10.048
  1 B     1 A     2 A     2 B     3 B     3 A     4 B     4 A                  
-10.034 -10.034  -7.809  -7.809  -5.773  -5.773  -5.770  -5.770
  5 B     5 A     6 B     6 A     7 B     7 A     8 B     8 A                  
 -5.766  -5.766  -0.723  -0.702  -0.605  -0.581  -0.571  -0.536
  9 A     9 B    10 A    10 B    11 A    12 A    11 B    12 B                  
 -0.446  -0.412  -0.395  -0.369  -0.362  -0.315  -0.261  -0.253
 13 A    14 A    13 B    14 B    15 A    15 B    16 A    17 A                  
 -0.248  -0.239  -0.237  -0.209  -0.209  -0.194  -0.179  -0.119
 16 B    17 B    18 A    18 B    19 A    20 A    19 B    20 B                  
 -0.107  -0.104  -0.055   0.051
 21 B    21 A    22 A    22 B                                                  
 -- Virtual --                   
  0.093   0.096   0.109   0.114   0.124   0.137   0.141   0.150
 23 A    23 B    24 A    24 B    25 A    26 A    25 B    27 A                  
  0.151   0.157   0.169   0.171   0.175   0.177   0.181   0.197
 28 A    26 B    29 A    27 B    28 B    30 A    29 B    31 A                  
  0.200   0.203   0.206   0.213   0.218   0.225   0.227   0.229
 30 B    31 B    32 A    32 B    33 A    34 A    33 B    35 A                  
  0.233   0.234   0.244   0.248   0.250   0.257   0.259   0.270
 34 B    36 A    37 A    35 B    38 A    39 A    36 B    40 A                  
  0.273   0.276   0.282   0.289   0.289   0.299   0.301   0.308
 37 B    38 B    39 B    40 B    41 A    41 B    42 A    43 A                  
  0.309   0.321   0.330   0.331   0.337   0.339   0.344   0.359
 42 B    44 A    45 A    43 B    44 B    46 A    45 B    46 B                  
  0.375   0.384   0.395   0.400   0.404   0.441   0.447   0.447
 47 A    47 B    48 B    48 A    49 A    50 A    49 B    51 A                  
  0.450   0.460   0.468   0.487   0.490   0.515   0.531   0.581
 50 B    52 A    51 B    53 A    52 B    53 B    54 A    54 B                  
  0.591   0.611   0.647   0.675   0.680   0.701   0.712   0.724
 55 A    56 A    55 B    57 A    56 B    57 B    58 A    58 B                  
  0.755   0.764   0.772   0.804   0.817   0.822   0.825   0.841
 59 A    60 A    59 B    61 A    60 B    61 B    62 A    63 A                  
  0.859   0.869   0.875   0.880   0.887   0.905   0.906   0.941
 62 B    64 A    63 B    65 A    64 B    66 A    65 B    67 A                  
  0.947   0.973   0.985   1.003   1.035   1.057   1.087   1.101
 66 B    67 B    68 A    68 B    69 A    69 B    70 A    70 B                  
  1.102   1.108   1.119   1.125   1.134   1.144   1.153   1.160
 71 B    71 A    72 A    72 B    73 A    73 B    74 A    74 B                  
  1.186   1.210   1.218   1.242   1.244   1.260   1.266   1.272
 75 A    75 B    76 A    77 A    76 B    78 A    77 B    78 B                  
  1.316   1.339   1.367   1.405   1.409   1.482   1.499   1.513
 79 A    80 A    79 B    80 B    81 A    81 B    82 A    82 B                  
  1.515   1.526   1.557   1.589   1.637   1.640   1.712   1.754
 83 A    83 B    84 A    84 B    85 A    85 B    86 A    86 B                  
  1.820   1.845   1.862   1.972   2.012   2.038   2.052   2.063
 87 B    87 A    88 B    88 A    89 A    90 A    89 B    90 B                  
  2.088   2.122   2.126   2.160   2.166   2.205   2.222   2.272
 91 A    91 B    92 A    93 A    92 B    93 B    94 A    95 A                  
  2.297   2.313   2.315   2.371   2.402   2.422   2.454   2.516
 94 B    95 B    96 A    96 B    97 A    97 B    98 A    99 A                  
  2.519   2.575   2.597   2.601   2.626   2.652   2.669   2.676
 98 B    99 B   100 A   101 A   100 B   101 B   102 B   102 A                  
  2.691   2.731   2.750   2.751   2.821   2.836   2.871   2.927
103 A   104 A   103 B   105 A   104 B   105 B   106 A   107 A                  
  2.948   3.011   3.053   3.120   3.291   3.359   3.417   3.417
106 B   108 A   107 B   108 B   109 A   109 B   110 B   110 A                  
  3.554   3.576   3.859   3.893   4.102   4.159   4.426   4.461
111 A   111 B   112 A   112 B   113 A   113 B   114 A   115 A                  
  4.482   4.489   4.573   4.688   4.804   4.875
114 B   115 B   116 A   116 B   117 A   117 B                                  
 
 Beta MOs, Unrestricted
 -- Occupied --                  
-88.750 -88.750 -10.062 -10.062 -10.053 -10.053 -10.049 -10.049
  1 B     1 A     2 A     2 B     3 B     3 A     4 B     4 A                  
-10.032 -10.032  -7.809  -7.809  -5.773  -5.773  -5.770  -5.770
  5 B     5 A     6 B     6 A     7 B     7 A     8 B     8 A                  
 -5.765  -5.765  -0.719  -0.699  -0.599  -0.577  -0.568  -0.531
  9 A     9 B    10 A    10 B    11 A    12 A    11 B    12 B                  
 -0.439  -0.410  -0.392  -0.366  -0.361  -0.313  -0.259  -0.251
 13 A    14 A    13 B    14 B    15 A    15 B    16 A    17 A                  
 -0.245  -0.235  -0.230  -0.207  -0.200  -0.192  -0.176  -0.104
 16 B    18 A    17 B    18 B    19 A    20 A    19 B    20 B                  
 -0.097  -0.096  -0.037
 21 B    21 A    22 A                                                          
 -- Virtual --                   
  0.093   0.096   0.105   0.109   0.114   0.124   0.141   0.145
 23 A    22 B    23 B    24 A    24 B    25 A    25 B    26 A                  
  0.151   0.157   0.157   0.171   0.173   0.176   0.177   0.184
 27 A    28 A    26 B    29 A    27 B    28 B    30 A    29 B                  
  0.200   0.201   0.203   0.206   0.214   0.218   0.226   0.228
 31 A    30 B    31 B    32 A    32 B    33 A    34 A    33 B                  
  0.230   0.234   0.235   0.245   0.249   0.252   0.259   0.260
 35 A    34 B    36 A    37 A    35 B    38 A    39 A    36 B                  
  0.271   0.274   0.277   0.284   0.289   0.293   0.300   0.304
 40 A    37 B    38 B    39 B    40 B    41 A    41 B    42 A                  
  0.308   0.310   0.321   0.331   0.331   0.339   0.339   0.344
 43 A    42 B    44 A    45 A    43 B    44 B    46 A    45 B                  
  0.359   0.376   0.385   0.396   0.400   0.405   0.442   0.449
 46 B    47 A    47 B    48 B    48 A    49 A    50 A    49 B                  
  0.451   0.452   0.460   0.470   0.487   0.490   0.518   0.532
 51 A    50 B    52 A    51 B    53 A    52 B    53 B    54 A                  
  0.583   0.592   0.613   0.650   0.678   0.682   0.703   0.715
 54 B    55 A    56 A    55 B    57 A    56 B    57 B    58 A                  
  0.726   0.757   0.765   0.774   0.815   0.821   0.830   0.833
 58 B    59 A    60 A    59 B    61 A    60 B    62 A    61 B                  
  0.843   0.862   0.872   0.877   0.881   0.892   0.908   0.911
 63 A    62 B    64 A    63 B    65 A    64 B    65 B    66 A                  
  0.943   0.950   0.980   0.992   1.009   1.037   1.059   1.089
 67 A    66 B    67 B    68 A    68 B    69 A    69 B    70 A                  
  1.102   1.105   1.110   1.121   1.126   1.136   1.146   1.155
 70 B    71 B    71 A    72 A    72 B    73 A    73 B    74 A                  
  1.161   1.188   1.212   1.221   1.243   1.248   1.263   1.270
 74 B    75 A    75 B    76 A    77 A    76 B    78 A    77 B                  
  1.275   1.319   1.342   1.370   1.407   1.412   1.485   1.503
 78 B    79 A    80 A    79 B    80 B    81 A    81 B    82 A                  
  1.516   1.519   1.531   1.561   1.592   1.639   1.643   1.718
 82 B    83 A    83 B    84 A    84 B    85 A    85 B    86 A                  
  1.758   1.828   1.855   1.872   1.975   2.014   2.043   2.053
 86 B    87 B    87 A    88 B    88 A    89 A    90 A    89 B                  
  2.065   2.089   2.127   2.130   2.162   2.170   2.207   2.226
 90 B    91 A    91 B    92 A    93 A    92 B    93 B    94 A                  
  2.280   2.306   2.318   2.324   2.378   2.406   2.426   2.458
 95 A    94 B    95 B    96 A    96 B    97 A    97 B    98 A                  
  2.518   2.521   2.579   2.600   2.605   2.628   2.653   2.673
 99 A    98 B    99 B   100 A   101 A   100 B   101 B   102 B                  
  2.678   2.696   2.733   2.754   2.755   2.822   2.839   2.875
102 A   103 A   104 A   103 B   105 A   104 B   105 B   106 A                  
  2.929   2.951   3.014   3.055   3.122   3.292   3.360   3.417
107 A   106 B   108 A   107 B   108 B   109 A   109 B   110 B                  
  3.417   3.555   3.578   3.860   3.894   4.104   4.161   4.430
110 A   111 A   111 B   112 A   112 B   113 A   113 B   114 A                  
  4.463   4.486   4.492   4.578   4.693   4.807   4.878
115 A   114 B   115 B   116 A   116 B   117 A   117 B                          
 --------------------------------------------------------------
 
          Ground-State Mulliken Net Atomic Charges

     Atom                 Charge (a.u.)    Spin (a.u.)
  --------------------------------------------------------
      1 S                    -0.237569       0.119958
      2 C                    -0.175976       0.237082
      3 C                    -0.357780      -0.065875
      4 C                     0.032867       0.199091
      5 C                    -0.065989       0.023266
      6 H                     0.095061      -0.004350
      7 C                    -0.065989       0.023266
      8 S                    -0.237569       0.119958
      9 C                     0.032867       0.199091
     10 C                    -0.175976       0.237082
     11 C                    -0.357780      -0.065875
     12 H                     0.070076       0.003323
     13 H                     0.139309      -0.012496
     14 H                     0.070076       0.003323
     15 H                     0.139309      -0.012496
     16 H                     0.095061      -0.004350
  --------------------------------------------------------
  Sum of atomic charges =    -1.000000
  Sum of spin   charges =     1.000000

 -----------------------------------------------------------------
                    Cartesian Multipole Moments
 -----------------------------------------------------------------
    Charge (ESU x 10^10)
                -4.8032
    Dipole Moment (Debye)
         X      -0.0000      Y       0.0000      Z      -0.4543
       Tot       0.4543
    Quadrupole Moments (Debye-Ang)
        XX     -99.8181     XY      -1.5835     YY     -86.7800
        XZ       0.0000     YZ       0.0000     ZZ     -83.8606
    Octopole Moments (Debye-Ang^2)
       XXX      -0.0000    XXY       0.0000    XYY       0.0000
       YYY       0.0000    XXZ       8.1003    XYZ       4.0704
       YYZ       1.8978    XZZ      -0.0000    YZZ       0.0000
       ZZZ      -2.4491
    Hexadecapole Moments (Debye-Ang^3)
      XXXX   -2498.2152   XXXY     -19.6507   XXYY    -492.7186
      XYYY       6.6354   YYYY    -191.3619   XXXZ      -0.0000
      XXYZ       0.0000   XYYZ       0.0000   YYYZ       0.0000
      XXZZ    -507.3576   XYZZ      -6.1928   YYZZ    -149.0258
      XZZZ      -0.0000   YZZZ       0.0000   ZZZZ    -654.0982
 -----------------------------------------------------------------
 Calculating analytic gradient of the SCF energy
 Gradient of SCF Energy
            1           2           3           4           5           6
    1   0.0008169  -0.0006266   0.0002587  -0.0006209   0.0013534  -0.0001259
    2   0.0013490  -0.0010819   0.0019814  -0.0067225   0.0104570   0.0001135
    3   0.0005803   0.0005023  -0.0009699   0.0034986  -0.0033585  -0.0000936
            7           8           9          10          11          12
    1  -0.0013534  -0.0008169   0.0006209   0.0006266  -0.0002587   0.0000629
    2  -0.0104570  -0.0013490   0.0067225   0.0010819  -0.0019814   0.0004296
    3  -0.0033585   0.0005803   0.0034986   0.0005023  -0.0009699  -0.0000373
           13          14          15          16
    1  -0.0000572  -0.0000629   0.0000572   0.0001259
    2   0.0001705  -0.0004296  -0.0001705  -0.0001135
    3  -0.0001220  -0.0000373  -0.0001220  -0.0000936
 Max gradient component =       1.046E-02
 RMS gradient           =       2.815E-03
 Gradient time:  CPU 1.76 s  wall 1.76 s
 Geometry Optimization Parameters
   NAtoms,    NIC,     NZ,  NCons,   NDum,   NFix, NCnnct, MaxDiis
       16     111       0       1       0       0       0       0

 Cartesian Hessian Update
 Hessian Updated using BFGS Update


** CONSTRAINED OPTIMIZATION IN DELOCALIZED INTERNAL COORDINATES **
   Searching for a Minimum

   Optimization Cycle:   3

                       Coordinates (Angstroms)
     ATOM                X               Y               Z
      1  S         1.6762421611    0.3662306096    1.1478098152
      2  C         3.1922615082    0.0460157230    0.3030140310
      3  C         2.9559145286   -0.2904751555   -1.0193502421
      4  C         1.5898160812   -0.3526426359   -1.3670977037
      5  C         0.7081672308    0.0114969847   -0.3274430499
      6  H         1.2240827243   -0.6777913062   -2.3357107828
      7  C        -0.7081672308   -0.0114969847   -0.3274430499
      8  S        -1.6762421611   -0.3662306096    1.1478098152
      9  C        -1.5898160812    0.3526426359   -1.3670977037
     10  C        -3.1922615082   -0.0460157230    0.3030140310
     11  C        -2.9559145286    0.2904751555   -1.0193502421
     12  H        -3.7553112214    0.5524665775   -1.7088293244
     13  H         4.1323897823    0.0862593352    0.8351953852
     14  H         3.7553112214   -0.5524665775   -1.7088293244
     15  H        -4.1323897823   -0.0862593352    0.8351953852
     16  H        -1.2240827243    0.6777913062   -2.3357107828
   Point Group: c2    Number of degrees of freedom:    22


   Energy is  -1104.839675575

              Constraints and their Current Values
                                        Value     Constraint
   Dihedral:        4   5   7   9      -40.000      -40.000
 Hessian Updated using BFGS Update

 20 Hessian modes will be used to form the next step
  Hessian Eigenvalues:
     0.015930    0.045000    0.045000    0.045121    0.051055    0.159999
     0.160067    0.160356    0.222686    0.246138    0.256161    0.275709
     0.284130    0.351007    0.354233    0.358641    0.420385    0.426249
     0.470703    0.478319

 Minimum Search - Taking Simple RFO Step
 Searching for Lamda that Minimizes Along All modes
 Value Taken    Lamda =  -0.00028640
 Step Taken.  Stepsize is  0.116545

                             Maximum     Tolerance    Cnvgd?
         Gradient           0.002646      0.000300      NO
         Displacement       0.081684      0.001200      NO
         Energy change     -0.000840      0.000001      NO


 New Cartesian Coordinates Obtained by Inverse Iteration

 Displacement from previous Coordinates is:  0.184561
 ----------------------------------------------------------------
             Standard Nuclear Orientation (Angstroms)
    I     Atom           X                Y                Z
 ----------------------------------------------------------------
    1      S       1.6688602720     0.3391242485     1.1514256564
    2      C       3.1902832852     0.0372973122     0.3100047180
    3      C       2.9597380593    -0.2801206981    -1.0180150803
    4      C       1.5954756354    -0.3281018843    -1.3764751388
    5      C       0.7076061382     0.0226235132    -0.3354042449
    6      H       1.2343610304    -0.6465755683    -2.3489025310
    7      C      -0.7076061382    -0.0226235132    -0.3354042449
    8      S      -1.6688602720    -0.3391242485     1.1514256564
    9      C      -1.5954756354     0.3281018843    -1.3764751388
   10      C      -3.1902832852    -0.0372973122     0.3100047180
   11      C      -2.9597380593     0.2801206981    -1.0180150803
   12      H      -3.7627845858     0.5351767498    -1.7056255060
   13      H       4.1264902613     0.0560238018     0.8505802551
   14      H       3.7627845858    -0.5351767498    -1.7056255060
   15      H      -4.1264902613    -0.0560238018     0.8505802551
   16      H      -1.2343610304     0.6465755683    -2.3489025310
 ----------------------------------------------------------------
 Molecular Point Group                 C2    NOp =  2
 Largest Abelian Subgroup              C2    NOp =  2
 Nuclear Repulsion Energy =   625.3909489663 hartrees
 There are       44 alpha and       43 beta electrons
 Applying Cartesian multipole field
    Component          Value
    ---------          -----
     (2,0,0)        1.00000E-11
     (0,2,0)        2.00000E-11
     (0,0,2)       -3.00000E-11
 Nucleus-field energy     =     0.0000000049 hartrees
 Requested basis set is 6-31++G(d,p)
 There are 76 shells and 234 basis functions
 A cutoff of  1.0D-11 yielded   2489 shell pairs
 There are     24595 function pairs
 Smallest overlap matrix eigenvalue = 1.58E-06

 Q-Chem warning in module /project/projectdirs/jcesr/qchem/qc44/cnl_qc441/compile/cori/qc_src/stvman/mkSTV.C, line 257:

 Overlap eigenvalue is smaller than square root of threshold

 Guess MOs from SCF MO coefficient file
 Reading MOs from coefficient file
 Reading MOs from coefficient file
 An unrestricted hybrid HF-DFT SCF calculation will be
 performed using Pulay DIIS extrapolation
 Exchange:     0.2000 Hartree-Fock + 0.0800 Slater + 0.7200 B88
 Correlation:  0.1900 VWN1RPA + 0.8100 LYP
 Using SG-1 standard quadrature grid
 SCF converges when DIIS error is below 1.0E-08
 Geometry optimization detected.  Setting ReadMinima to 0
 Setting SaveMinima to 0
 ---------------------------------------
  Cycle       Energy         DIIS Error
 ---------------------------------------
    1   -1104.8337258690      8.71E-04
    2   -1104.8397411443      1.10E-04
    3   -1104.8395544104      1.90E-04
    4   -1104.8398628079      3.20E-05
    5   -1104.8398703132      1.23E-05
    6   -1104.8398712773      6.66E-06
    7   -1104.8398716379      9.61E-07
    8   -1104.8398716552      3.16E-07
    9   -1104.8398716595      1.64E-07
   10   -1104.8398716605      5.80E-08
   11   -1104.8398716615      2.84E-08
   12   -1104.8398716609      1.50E-08
   13   -1104.8398716605      4.12E-09 Convergence criterion met
 ---------------------------------------
 <S^2> = 0.7627
 SCF time:  CPU 8.46 s  wall 7.61 s
 SCF   energy in the final basis set = -1104.8398716605
 Total energy in the final basis set = -1104.8398716605
 
 --------------------------------------------------------------
             Orbital Energies (a.u.) and Symmetries
 --------------------------------------------------------------
 
 Alpha MOs, Unrestricted
 -- Occupied --                  
-88.750 -88.750 -10.065 -10.064 -10.056 -10.056 -10.048 -10.048
  1 B     1 A     2 A     2 B     3 B     3 A     4 B     4 A                  
-10.034 -10.034  -7.809  -7.809  -5.773  -5.773  -5.770  -5.770
  5 B     5 A     6 B     6 A     7 B     7 A     8 B     8 A                  
 -5.766  -5.766  -0.723  -0.702  -0.605  -0.581  -0.571  -0.536
  9 A     9 B    10 A    10 B    11 A    12 A    11 B    12 B                  
 -0.446  -0.413  -0.395  -0.369  -0.362  -0.315  -0.261  -0.253
 13 A    14 A    13 B    14 B    15 A    15 B    16 A    17 A                  
 -0.248  -0.239  -0.238  -0.209  -0.209  -0.194  -0.178  -0.120
 16 B    17 B    18 A    18 B    19 A    20 A    19 B    20 B                  
 -0.107  -0.103  -0.054   0.051
 21 B    21 A    22 A    22 B                                                  
 -- Virtual --                   
  0.094   0.096   0.109   0.115   0.125   0.138   0.141   0.150
 23 A    23 B    24 A    24 B    25 A    26 A    25 B    27 A                  
  0.152   0.157   0.169   0.171   0.175   0.177   0.182   0.198
 28 A    26 B    29 A    27 B    28 B    30 A    29 B    31 A                  
  0.201   0.202   0.207   0.213   0.218   0.225   0.228   0.229
 30 B    31 B    32 A    32 B    33 A    34 A    33 B    35 A                  
  0.233   0.234   0.244   0.248   0.250   0.256   0.260   0.270
 34 B    36 A    37 A    35 B    38 A    39 A    36 B    40 A                  
  0.275   0.276   0.282   0.288   0.289   0.299   0.301   0.309
 37 B    38 B    39 B    41 A    40 B    41 B    42 A    43 A                  
  0.310   0.320   0.330   0.332   0.337   0.338   0.344   0.357
 42 B    44 A    45 A    43 B    46 A    44 B    45 B    46 B                  
  0.373   0.386   0.398   0.401   0.404   0.440   0.445   0.447
 47 A    47 B    48 B    48 A    49 A    50 A    49 B    51 A                  
  0.450   0.459   0.470   0.486   0.489   0.515   0.530   0.579
 50 B    52 A    51 B    53 A    52 B    53 B    54 A    54 B                  
  0.590   0.611   0.646   0.676   0.682   0.701   0.712   0.728
 55 A    56 A    55 B    57 A    56 B    57 B    58 A    58 B                  
  0.753   0.762   0.775   0.804   0.817   0.823   0.824   0.839
 59 A    60 A    59 B    61 A    60 B    61 B    62 A    63 A                  
  0.859   0.869   0.875   0.878   0.884   0.905   0.907   0.940
 62 B    64 A    63 B    65 A    64 B    66 A    65 B    67 A                  
  0.950   0.971   0.984   1.001   1.035   1.058   1.085   1.102
 66 B    67 B    68 A    68 B    69 A    69 B    70 A    70 B                  
  1.103   1.106   1.120   1.127   1.133   1.142   1.154   1.158
 71 B    71 A    72 A    72 B    73 A    73 B    74 A    74 B                  
  1.184   1.215   1.215   1.242   1.244   1.261   1.266   1.273
 75 A    75 B    76 A    77 A    76 B    78 A    77 B    78 B                  
  1.314   1.338   1.364   1.403   1.409   1.487   1.495   1.511
 79 A    80 A    79 B    80 B    81 A    81 B    82 A    82 B                  
  1.515   1.528   1.560   1.579   1.631   1.644   1.716   1.761
 83 A    83 B    84 A    84 B    85 A    85 B    86 A    86 B                  
  1.813   1.846   1.860   1.972   2.011   2.037   2.052   2.063
 87 B    87 A    88 B    88 A    89 A    90 A    89 B    90 B                  
  2.087   2.123   2.133   2.158   2.164   2.202   2.222   2.270
 91 A    91 B    92 A    93 A    92 B    93 B    94 A    95 A                  
  2.298   2.310   2.311   2.369   2.404   2.425   2.452   2.516
 94 B    96 A    95 B    96 B    97 A    97 B    98 A    99 A                  
  2.520   2.574   2.594   2.599   2.626   2.655   2.670   2.676
 98 B    99 B   100 A   101 A   100 B   101 B   102 B   102 A                  
  2.691   2.731   2.750   2.753   2.819   2.836   2.871   2.926
103 A   104 A   103 B   105 A   104 B   105 B   106 A   107 A                  
  2.947   3.010   3.053   3.119   3.290   3.358   3.417   3.418
106 B   108 A   107 B   108 B   109 A   109 B   110 A   110 B                  
  3.553   3.576   3.858   3.892   4.101   4.162   4.425   4.460
111 A   111 B   112 A   112 B   113 A   113 B   114 A   115 A                  
  4.482   4.488   4.573   4.688   4.803   4.874
114 B   115 B   116 A   116 B   117 A   117 B                                  
 
 Beta MOs, Unrestricted
 -- Occupied --                  
-88.750 -88.750 -10.063 -10.062 -10.053 -10.053 -10.049 -10.049
  1 B     1 A     2 A     2 B     3 B     3 A     4 B     4 A                  
-10.032 -10.032  -7.809  -7.809  -5.773  -5.773  -5.770  -5.770
  5 B     5 A     6 B     6 A     7 B     7 A     8 B     8 A                  
 -5.765  -5.765  -0.719  -0.699  -0.599  -0.577  -0.568  -0.531
  9 A     9 B    10 A    10 B    11 A    12 A    11 B    12 B                  
 -0.439  -0.411  -0.392  -0.366  -0.361  -0.314  -0.259  -0.251
 13 A    14 A    13 B    14 B    15 A    15 B    16 A    17 A                  
 -0.245  -0.235  -0.230  -0.207  -0.200  -0.192  -0.176  -0.105
 16 B    18 A    17 B    18 B    19 A    20 A    19 B    20 B                  
 -0.098  -0.095  -0.036
 21 B    21 A    22 A                                                          
 -- Virtual --                   
  0.093   0.096   0.104   0.109   0.114   0.124   0.142   0.145
 23 A    22 B    23 B    24 A    24 B    25 A    25 B    26 A                  
  0.151   0.157   0.158   0.170   0.174   0.176   0.177   0.184
 27 A    26 B    28 A    29 A    27 B    28 B    30 A    29 B                  
  0.201   0.201   0.204   0.207   0.215   0.218   0.226   0.228
 31 A    30 B    31 B    32 A    32 B    33 A    34 A    33 B                  
  0.230   0.234   0.234   0.245   0.249   0.253   0.259   0.261
 35 A    36 A    34 B    37 A    35 B    38 A    39 A    36 B                  
  0.271   0.276   0.278   0.284   0.289   0.292   0.300   0.304
 40 A    37 B    38 B    39 B    40 B    41 A    41 B    42 A                  
  0.309   0.311   0.320   0.330   0.332   0.338   0.339   0.344
 43 A    42 B    44 A    45 A    43 B    46 A    44 B    45 B                  
  0.358   0.374   0.387   0.398   0.401   0.404   0.441   0.446
 46 B    47 A    47 B    48 B    48 A    49 A    50 A    49 B                  
  0.450   0.451   0.460   0.471   0.487   0.489   0.518   0.531
 51 A    50 B    52 A    51 B    53 A    52 B    53 B    54 A                  
  0.581   0.591   0.612   0.648   0.679   0.684   0.703   0.714
 54 B    55 A    56 A    55 B    57 A    56 B    57 B    58 A                  
  0.730   0.754   0.764   0.778   0.815   0.821   0.829   0.834
 58 B    59 A    60 A    59 B    61 A    60 B    62 A    61 B                  
  0.842   0.862   0.872   0.878   0.879   0.889   0.909   0.911
 63 A    62 B    64 A    63 B    65 A    64 B    65 B    66 A                  
  0.942   0.953   0.978   0.992   1.008   1.037   1.060   1.087
 67 A    66 B    67 B    68 A    68 B    69 A    69 B    70 A                  
  1.104   1.106   1.108   1.123   1.128   1.135   1.144   1.156
 70 B    71 B    71 A    72 A    72 B    73 A    73 B    74 A                  
  1.159   1.186   1.216   1.218   1.243   1.247   1.263   1.271
 74 B    75 A    75 B    76 A    77 A    76 B    78 A    77 B                  
  1.276   1.317   1.341   1.367   1.404   1.412   1.490   1.499
 78 B    79 A    80 A    79 B    80 B    81 A    81 B    82 A                  
  1.514   1.519   1.534   1.563   1.581   1.633   1.647   1.722
 82 B    83 A    83 B    84 A    84 B    85 A    85 B    86 A                  
  1.766   1.820   1.857   1.870   1.975   2.013   2.041   2.053
 86 B    87 B    87 A    88 B    88 A    89 A    90 A    89 B                  
  2.065   2.089   2.128   2.137   2.161   2.168   2.204   2.225
 90 B    91 A    91 B    92 A    93 A    92 B    93 B    94 A                  
  2.278   2.307   2.315   2.319   2.376   2.408   2.429   2.456
 95 A    94 B    95 B    96 A    96 B    97 A    97 B    98 A                  
  2.518   2.522   2.579   2.597   2.602   2.628   2.656   2.674
 99 A    98 B    99 B   100 A   101 A   100 B   101 B   102 B                  
  2.678   2.696   2.733   2.754   2.758   2.820   2.839   2.875
102 A   103 A   104 A   103 B   105 A   104 B   105 B   106 A                  
  2.928   2.950   3.012   3.055   3.120   3.291   3.359   3.418
107 A   106 B   108 A   107 B   108 B   109 A   109 B   110 A                  
  3.418   3.554   3.577   3.859   3.893   4.102   4.163   4.429
110 B   111 A   111 B   112 A   112 B   113 A   113 B   114 A                  
  4.462   4.487   4.490   4.578   4.693   4.806   4.877
115 A   114 B   115 B   116 A   116 B   117 A   117 B                          
 --------------------------------------------------------------
 
          Ground-State Mulliken Net Atomic Charges

     Atom                 Charge (a.u.)    Spin (a.u.)
  --------------------------------------------------------
      1 S                    -0.245616       0.117834
      2 C                    -0.171594       0.238299
      3 C                    -0.355031      -0.067466
      4 C                     0.017453       0.202177
      5 C                    -0.050854       0.023454
      6 H                     0.094402      -0.005013
      7 C                    -0.050854       0.023454
      8 S                    -0.245616       0.117834
      9 C                     0.017453       0.202177
     10 C                    -0.171594       0.238299
     11 C                    -0.355031      -0.067466
[...]
      4 C                     0.003668       0.205412
      5 C                    -0.036002       0.023668
      6 H                     0.091823      -0.006220
      7 C                    -0.036002       0.023668
      8 S                    -0.258023       0.115574
      9 C                     0.003668       0.205412
     10 C                    -0.168498       0.239386
     11 C                    -0.346358      -0.068007
     12 H                     0.070003       0.003634
     13 H                     0.143388      -0.013446
     14 H                     0.070003       0.003634
     15 H                     0.143388      -0.013446
     16 H                     0.091823      -0.006220
  --------------------------------------------------------
  Sum of atomic charges =    -1.000000
  Sum of spin   charges =     1.000000

 -----------------------------------------------------------------
                    Cartesian Multipole Moments
 -----------------------------------------------------------------
    Charge (ESU x 10^10)
                -4.8032
    Dipole Moment (Debye)
         X      -0.0000      Y      -0.0000      Z      -0.4162
       Tot       0.4162
    Quadrupole Moments (Debye-Ang)
        XX     -99.6457     XY      -1.5126     YY     -86.8361
        XZ       0.0000     YZ       0.0000     ZZ     -83.6986
    Octopole Moments (Debye-Ang^2)
       XXX      -0.0000    XXY      -0.0000    XYY       0.0000
       YYY      -0.0000    XXZ       8.4899    XYZ       3.6554
       YYZ       2.0657    XZZ      -0.0000    YZZ      -0.0000
       ZZZ      -1.9963
    Hexadecapole Moments (Debye-Ang^3)
      XXXX   -2487.4630   XXXY     -12.4586   XXYY    -489.8572
      XYYY      15.5837   YYYY    -179.3494   XXXZ       0.0000
      XXYZ       0.0000   XYYZ      -0.0000   YYYZ       0.0000
      XXZZ    -504.3895   XYZZ      -3.5761   YYZZ    -150.4733
      XZZZ       0.0000   YZZZ       0.0000   ZZZZ    -658.6229
 -----------------------------------------------------------------
 Calculating analytic gradient of the SCF energy
 Gradient of SCF Energy
            1           2           3           4           5           6
    1   0.0000402  -0.0000148   0.0000210   0.0002415  -0.0005945  -0.0000025
    2   0.0000209   0.0000467  -0.0000307  -0.0063667   0.0141606   0.0000273
    3   0.0000117   0.0000011  -0.0000078   0.0023433  -0.0023387  -0.0000094
            7           8           9          10          11          12
    1   0.0005945  -0.0000402  -0.0002415   0.0000148  -0.0000210   0.0000002
    2  -0.0141606  -0.0000209   0.0063667  -0.0000467   0.0000307  -0.0000392
    3  -0.0023387   0.0000117   0.0023433   0.0000011  -0.0000078  -0.0000095
           13          14          15          16
    1  -0.0000035  -0.0000002   0.0000035   0.0000025
    2  -0.0000362   0.0000392   0.0000362  -0.0000273
    3   0.0000093  -0.0000095   0.0000093  -0.0000094
 Max gradient component =       1.416E-02
 RMS gradient           =       3.243E-03
 Gradient time:  CPU 1.86 s  wall 1.77 s
 Geometry Optimization Parameters
   NAtoms,    NIC,     NZ,  NCons,   NDum,   NFix, NCnnct, MaxDiis
       16     111       0       1       0       0       0       0

 Cartesian Hessian Update
 Hessian Updated using BFGS Update


** CONSTRAINED OPTIMIZATION IN DELOCALIZED INTERNAL COORDINATES **
   Searching for a Minimum

   Optimization Cycle:  10

                       Coordinates (Angstroms)
     ATOM                X               Y               Z
      1  S         1.6521060011    0.3105053323    1.1522102835
      2  C         3.1826885354    0.0167956329    0.3231856328
      3  C         2.9644347786   -0.2817019902   -1.0109504174
      4  C         1.6054403062   -0.3082173977   -1.3881280142
      5  C         0.7072617951    0.0308980795   -0.3495987479
      6  H         1.2562553345   -0.5964829411   -2.3742179081
      7  C        -0.7072617951   -0.0308980795   -0.3495987479
      8  S        -1.6521060011   -0.3105053323    1.1522102835
      9  C        -1.6054403062    0.3082173977   -1.3881280142
     10  C        -3.1826885354   -0.0167956329    0.3231856328
     11  C        -2.9644347786    0.2817019902   -1.0109504174
     12  H        -3.7749411180    0.5141554684   -1.6979700691
     13  H         4.1133545439    0.0334581114    0.8730573690
     14  H         3.7749411180   -0.5141554684   -1.6979700691
     15  H        -4.1133545439   -0.0334581114    0.8730573690
     16  H        -1.2562553345    0.5964829411   -2.3742179081
   Point Group: c2    Number of degrees of freedom:    22


   Energy is  -1104.839976861

              Constraints and their Current Values
                                        Value     Constraint
   Dihedral:        4   5   7   9      -40.000      -40.000
 Hessian Updated using BFGS Update

 21 Hessian modes will be used to form the next step
  Hessian Eigenvalues:
     0.006716    0.012604    0.023118    0.045040    0.046580    0.049478
     0.159867    0.160075    0.160296    0.222838    0.248225    0.256152
     0.272682    0.286227    0.351135    0.354254    0.358917    0.415965
     0.431331    0.470447    0.477059

 Minimum Search - Taking Simple RFO Step
 Searching for Lamda that Minimizes Along All modes
 Value Taken    Lamda =   0.00000000
 Step Taken.  Stepsize is  0.005149

                             Maximum     Tolerance    Cnvgd?
         Gradient           0.000071      0.000300     YES
         Displacement       0.003095      0.001200      NO
         Energy change     -0.000001      0.000001     YES

 Final energy is   -1104.83997686122     


 ******************************
 **  OPTIMIZATION CONVERGED  **
 ******************************

                       Coordinates (Angstroms)
     ATOM                X               Y               Z
      1  S         1.6521060011    0.3105053323    1.1522102835
      2  C         3.1826885354    0.0167956329    0.3231856328
      3  C         2.9644347786   -0.2817019902   -1.0109504174
      4  C         1.6054403062   -0.3082173977   -1.3881280142
      5  C         0.7072617951    0.0308980795   -0.3495987479
      6  H         1.2562553345   -0.5964829411   -2.3742179081
      7  C        -0.7072617951   -0.0308980795   -0.3495987479
      8  S        -1.6521060011   -0.3105053323    1.1522102835
      9  C        -1.6054403062    0.3082173977   -1.3881280142
     10  C        -3.1826885354   -0.0167956329    0.3231856328
     11  C        -2.9644347786    0.2817019902   -1.0109504174
     12  H        -3.7749411180    0.5141554684   -1.6979700691
     13  H         4.1133545439    0.0334581114    0.8730573690
     14  H         3.7749411180   -0.5141554684   -1.6979700691
     15  H        -4.1133545439   -0.0334581114    0.8730573690
     16  H        -1.2562553345    0.5964829411   -2.3742179081

Z-matrix Print:
$molecule
-1 2
S 
C  1 1.765285
H  2 1.081099 1 120.329393
C  2 1.384433 1 110.594382 3 -176.910487 0
H  4 1.087636 2 122.501127 1 178.859154 0
C  4 1.410614 2 114.431408 1 1.144017 0
H  6 1.085081 4 123.918645 2 175.286009 0
C  6 1.414308 4 114.266262 2 -2.557669 0
C  8 1.415873 6 128.608500 4 172.859710 0
C  9 1.414308 8 128.608500 6 39.999984 0
H  10 1.085081 9 121.778980 8 -5.035371 0
C  10 1.410614 9 114.266262 8 172.859710 0
H  12 1.087636 10 123.025736 9 179.740704 0
C  12 1.384433 10 114.431408 9 -2.557669 0
H  14 1.081099 12 128.989604 10 -175.424734 0
S  14 1.765285 12 110.594382 10 1.144017 0
$end

 
 --------------------------------------------------------------
             Orbital Energies (a.u.) and Symmetries
 --------------------------------------------------------------
 
 Alpha MOs, Unrestricted
 -- Occupied --                  
-88.750 -88.750 -10.065 -10.064 -10.056 -10.056 -10.048 -10.048
  1 B     1 A     2 A     2 B     3 B     3 A     4 B     4 A                  
-10.034 -10.034  -7.809  -7.809  -5.773  -5.773  -5.770  -5.770
  5 B     5 A     6 B     6 A     7 B     7 A     8 B     8 A                  
 -5.766  -5.766  -0.723  -0.702  -0.605  -0.581  -0.571  -0.536
  9 A     9 B    10 A    10 B    11 A    12 A    11 B    12 B                  
 -0.446  -0.413  -0.395  -0.369  -0.362  -0.315  -0.261  -0.253
 13 A    14 A    13 B    14 B    15 A    15 B    16 A    17 A                  
 -0.247  -0.239  -0.238  -0.209  -0.208  -0.195  -0.178  -0.121
 16 B    17 B    18 A    18 B    19 A    20 A    19 B    20 B                  
 -0.107  -0.103  -0.053   0.050
 21 B    21 A    22 A    22 B                                                  
 -- Virtual --                   
  0.094   0.096   0.109   0.115   0.124   0.139   0.142   0.150
 23 A    23 B    24 A    24 B    25 A    26 A    25 B    27 A                  
  0.153   0.157   0.168   0.171   0.175   0.177   0.182   0.199
 28 A    26 B    29 A    27 B    28 B    30 A    29 B    31 A                  
  0.201   0.204   0.207   0.214   0.218   0.226   0.229   0.229
 30 B    31 B    32 A    32 B    33 A    34 A    35 A    33 B                  
  0.234   0.234   0.244   0.248   0.251   0.256   0.261   0.270
 34 B    36 A    37 A    35 B    38 A    39 A    36 B    40 A                  
  0.276   0.277   0.281   0.288   0.289   0.300   0.302   0.310
 37 B    38 B    39 B    41 A    40 B    41 B    42 A    43 A                  
  0.312   0.320   0.329   0.332   0.336   0.338   0.344   0.357
 42 B    44 A    45 A    43 B    46 A    44 B    45 B    46 B                  
  0.372   0.387   0.400   0.400   0.403   0.440   0.443   0.445
 47 A    47 B    48 B    48 A    49 A    50 A    49 B    51 A                  
  0.450   0.459   0.472   0.485   0.488   0.515   0.530   0.578
 50 B    52 A    51 B    53 A    52 B    53 B    54 A    54 B                  
  0.590   0.611   0.645   0.678   0.684   0.702   0.710   0.730
 55 A    56 A    55 B    57 A    56 B    57 B    58 A    58 B                  
  0.750   0.761   0.779   0.805   0.818   0.824   0.824   0.838
 59 A    60 A    59 B    61 A    60 B    61 B    62 A    63 A                  
  0.859   0.869   0.874   0.878   0.883   0.905   0.908   0.940
 62 B    64 A    63 B    65 A    64 B    66 A    65 B    67 A                  
  0.953   0.969   0.985   1.001   1.035   1.059   1.084   1.104
 66 B    67 B    68 A    68 B    69 A    69 B    70 A    70 B                  
  1.106   1.107   1.119   1.128   1.133   1.137   1.155   1.156
 71 B    71 A    72 A    72 B    73 A    73 B    74 A    74 B                  
  1.184   1.211   1.218   1.243   1.243   1.262   1.269   1.274
 75 A    76 A    75 B    76 B    77 A    78 A    77 B    78 B                  
  1.315   1.338   1.362   1.399   1.407   1.497   1.498   1.506
 79 A    80 A    79 B    80 B    81 A    81 B    82 A    82 B                  
  1.512   1.526   1.555   1.573   1.637   1.647   1.716   1.771
 83 A    83 B    84 A    84 B    85 A    85 B    86 A    86 B                  
  1.803   1.845   1.860   1.974   2.008   2.037   2.051   2.065
 87 B    87 A    88 B    88 A    89 A    90 A    89 B    90 B                  
  2.086   2.125   2.137   2.159   2.160   2.202   2.220   2.272
 91 A    91 B    92 A    92 B    93 A    93 B    94 A    95 A                  
  2.296   2.305   2.305   2.372   2.406   2.429   2.447   2.516
 94 B    96 A    95 B    96 B    97 A    97 B    98 A    99 A                  
  2.521   2.576   2.599   2.600   2.626   2.656   2.671   2.671
 98 B    99 B   100 A   101 A   100 B   101 B   102 A   102 B                  
  2.690   2.731   2.748   2.756   2.818   2.837   2.869   2.926
103 A   104 A   103 B   105 A   104 B   105 B   106 A   107 A                  
  2.944   3.009   3.055   3.119   3.291   3.358   3.417   3.418
106 B   108 A   107 B   108 B   109 A   109 B   110 A   110 B                  
  3.553   3.577   3.858   3.893   4.099   4.165   4.422   4.460
111 A   111 B   112 A   112 B   113 A   113 B   114 A   115 A                  
  4.482   4.486   4.574   4.688   4.804   4.874
114 B   115 B   116 A   116 B   117 A   117 B                                  
 
 Beta MOs, Unrestricted
 -- Occupied --                  
-88.749 -88.749 -10.063 -10.062 -10.053 -10.053 -10.049 -10.049
  1 B     1 A     2 A     2 B     3 B     3 A     4 B     4 A                  
-10.032 -10.032  -7.809  -7.809  -5.773  -5.773  -5.770  -5.770
  5 B     5 A     6 B     6 A     7 B     7 A     8 B     8 A                  
 -5.765  -5.765  -0.719  -0.699  -0.600  -0.577  -0.568  -0.531
  9 A     9 B    10 A    10 B    11 A    12 A    11 B    12 B                  
 -0.439  -0.411  -0.391  -0.366  -0.361  -0.313  -0.259  -0.251
 13 A    14 A    13 B    14 B    15 A    15 B    16 A    17 A                  
 -0.245  -0.235  -0.230  -0.206  -0.199  -0.192  -0.175  -0.106
 16 B    18 A    17 B    18 B    19 A    20 A    19 B    20 B                  
 -0.098  -0.095  -0.035
 21 B    21 A    22 A                                                          
 -- Virtual --                   
  0.093   0.096   0.103   0.108   0.114   0.124   0.142   0.145
 23 A    22 B    23 B    24 A    24 B    25 A    25 B    26 A                  
  0.151   0.157   0.159   0.170   0.175   0.176   0.177   0.184
 27 A    26 B    28 A    29 A    27 B    28 B    30 A    29 B                  
  0.201   0.202   0.206   0.207   0.215   0.218   0.227   0.229
 30 B    31 A    31 B    32 A    32 B    33 A    34 A    33 B                  
  0.231   0.234   0.235   0.244   0.250   0.253   0.259   0.261
 35 A    36 A    34 B    37 A    35 B    38 A    39 A    36 B                  
  0.271   0.277   0.278   0.283   0.289   0.292   0.301   0.304
 40 A    37 B    38 B    39 B    40 B    41 A    41 B    42 A                  
  0.310   0.313   0.320   0.329   0.333   0.337   0.339   0.344
 43 A    42 B    44 A    45 A    43 B    46 A    44 B    45 B                  
  0.357   0.372   0.388   0.400   0.401   0.404   0.441   0.444
 46 B    47 A    47 B    48 B    48 A    49 A    50 A    49 B                  
  0.449   0.451   0.460   0.473   0.486   0.489   0.518   0.530
 51 A    50 B    52 A    51 B    53 A    52 B    53 B    54 A                  
  0.579   0.592   0.613   0.647   0.681   0.686   0.704   0.713
 54 B    55 A    56 A    55 B    57 A    56 B    57 B    58 A                  
  0.733   0.751   0.762   0.781   0.815   0.822   0.829   0.834
 58 B    59 A    60 A    59 B    61 A    60 B    62 A    61 B                  
  0.840   0.862   0.872   0.878   0.879   0.885   0.910   0.911
 63 A    62 B    64 A    63 B    65 A    64 B    65 B    66 A                  
  0.941   0.956   0.976   0.993   1.007   1.037   1.061   1.086
 67 A    66 B    67 B    68 A    68 B    69 A    69 B    70 A                  
  1.106   1.108   1.109   1.122   1.129   1.135   1.139   1.157
 70 B    71 B    71 A    72 A    72 B    73 A    73 B    74 B                  
  1.157   1.186   1.214   1.220   1.245   1.246   1.264   1.274
 74 A    75 A    76 A    75 B    77 A    76 B    78 A    77 B                  
  1.277   1.318   1.341   1.364   1.401   1.410   1.500   1.502
 78 B    79 A    80 A    79 B    80 B    81 A    81 B    82 A                  
  1.508   1.516   1.532   1.559   1.575   1.639   1.650   1.722
 82 B    83 A    83 B    84 A    84 B    85 A    85 B    86 A                  
  1.776   1.810   1.856   1.870   1.976   2.010   2.042   2.052
 86 B    87 B    87 A    88 B    88 A    89 A    90 A    89 B                  
  2.067   2.087   2.130   2.142   2.162   2.163   2.203   2.223
 90 B    91 A    91 B    92 A    93 A    92 B    93 B    94 A                  
  2.279   2.304   2.310   2.314   2.380   2.410   2.432   2.451
 95 A    94 B    95 B    96 A    96 B    97 A    97 B    98 A                  
  2.518   2.523   2.581   2.601   2.604   2.627   2.657   2.673
 99 A    98 B    99 B   100 A   101 A   100 B   101 B   102 A                  
  2.676   2.695   2.734   2.752   2.761   2.819   2.840   2.873
102 B   103 A   104 A   103 B   105 A   104 B   105 B   106 A                  
  2.928   2.947   3.011   3.056   3.121   3.292   3.359   3.418
107 A   106 B   108 A   107 B   108 B   109 A   109 B   110 A                  
  3.418   3.554   3.578   3.859   3.894   4.101   4.166   4.427
110 B   111 A   111 B   112 A   112 B   113 A   113 B   114 A                  
  4.462   4.487   4.488   4.579   4.693   4.807   4.877
115 A   114 B   115 B   116 A   116 B   117 A   117 B                          
 --------------------------------------------------------------
 
          Ground-State Mulliken Net Atomic Charges

     Atom                 Charge (a.u.)    Spin (a.u.)
  --------------------------------------------------------
      1 S                    -0.258023       0.115574
      2 C                    -0.168498       0.239386
      3 C                    -0.346358      -0.068007
      4 C                     0.003668       0.205412
      5 C                    -0.036002       0.023668
      6 H                     0.091823      -0.006220
      7 C                    -0.036002       0.023668
      8 S                    -0.258023       0.115574
      9 C                     0.003668       0.205412
     10 C                    -0.168498       0.239386
     11 C                    -0.346358      -0.068007
     12 H                     0.070003       0.003634
     13 H                     0.143388      -0.013446
     14 H                     0.070003       0.003634
     15 H                     0.143388      -0.013446
     16 H                     0.091823      -0.006220
  --------------------------------------------------------
  Sum of atomic charges =    -1.000000
  Sum of spin   charges =     1.000000

 -----------------------------------------------------------------
                    Cartesian Multipole Moments
 -----------------------------------------------------------------
    Charge (ESU x 10^10)
                -4.8032
    Dipole Moment (Debye)
         X      -0.0000      Y      -0.0000      Z      -0.4162
       Tot       0.4162
    Quadrupole Moments (Debye-Ang)
        XX     -99.6457     XY      -1.5126     YY     -86.8361
        XZ       0.0000     YZ       0.0000     ZZ     -83.6986
    Octopole Moments (Debye-Ang^2)
       XXX      -0.0000    XXY      -0.0000    XYY       0.0000
       YYY      -0.0000    XXZ       8.4899    XYZ       3.6554
       YYZ       2.0657    XZZ      -0.0000    YZZ      -0.0000
       ZZZ      -1.9963
    Hexadecapole Moments (Debye-Ang^3)
      XXXX   -2487.4630   XXXY     -12.4586   XXYY    -489.8572
      XYYY      15.5837   YYYY    -179.3494   XXXZ       0.0000
      XXYZ       0.0000   XYYZ      -0.0000   YYYZ       0.0000
      XXZZ    -504.3895   XYZZ      -3.5761   YYZZ    -150.4733
      XZZZ       0.0000   YZZZ       0.0000   ZZZZ    -658.6229
 -----------------------------------------------------------------
Archival summary:
1\1\nid01048\OPT\ProcedureUnspecified\BasisUnspecified\286(1-,2)\WedSep700:04:462016WedSep700:04:462016\0\\#,OPT,ProcedureUnspecified,BasisUnspecified,\\-1,2\S\C,1,1.76528\H,2,1.0811,1,120.329\C,2,1.38443,1,110.594,3,-176.91,0\H,4,1.08764,2,122.501,1,178.859,0\C,4,1.41061,2,114.431,1,1.14402,0\H,6,1.08508,4,123.919,2,175.286,0\C,6,1.41431,4,114.266,2,-2.55767,0\C,8,1.41587,6,128.608,4,172.86,0\C,9,1.41431,8,128.608,6,40,0\H,10,1.08508,9,121.779,8,-5.03537,0\C,10,1.41061,9,114.266,8,172.86,0\H,12,1.08764,10,123.026,9,179.741,0\C,12,1.38443,10,114.431,9,-2.55767,0\H,14,1.0811,12,128.99,10,-175.425,0\S,14,1.76528,12,110.594,10,1.14402,0\\\@

 Total job time:  109.51s(wall), 121.56s(cpu) 
 Wed Sep  7 00:04:46 2016

        *************************************************************
        *                                                           *
        *  Thank you very much for using Q-Chem.  Have a nice day.  *
        *                                                           *
        *************************************************************


0 sent ACK to 0 
now end server 0 ... 
