srun -N 1 --ntasks-per-node 16 --nodelist nid01047 /global/project/projectdirs/jcesr/qchem/qc44/cnl_qc441/dist/exe/qcprog.cori.exe .pt_charged_dft_0.0.in.10307.qcin.1 /dev/shm/eg_qchem/qchem10307/
Process 0 of 16 is on nid01047 - thread support 0
Process 1 of 16 is on nid01047 - thread support 0
Process 2 of 16 is on nid01047 - thread support 0
Process 3 of 16 is on nid01047 - thread support 0
Process 4 of 16 is on nid01047 - thread support 0
Process 5 of 16 is on nid01047 - thread support 0
Process 6 of 16 is on nid01047 - thread support 0
initial socket setup ...start
Process 15 of 16 is on nid01047 - thread support 0
initial socket setup ...done 
now start server 0 ... 
nid01047 10.128.4
Q-Chem Developer Version! Running on 10.128.4.*
                  Welcome to Q-Chem
     A Quantum Leap Into The Future Of Chemistry


 Q-Chem 4.4, Q-Chem, Inc., Pleasanton, CA (2016)

 Y. Shao,  Z. Gan,  E. Epifanovsky,  A. T. B. Gilbert,  M. Wormit,  
 J. Kussmann,  A. W. Lange,  A. Behn,  J. Deng,  X. Feng,  D. Ghosh,  
 M. Goldey,  P. R. Horn,  L. D. Jacobson,  I. Kaliman,  F.Rob,  
 R. Z. Khaliullin,  T. Kus,  A. Landau,  J. Liu,  E. I. Proynov,  Y. M. Rhee,  
 R. M. Richard,  M. A. Rohrdanz,  R. P. Steele,  E. J. Sundstrom,  
 H. L. Woodcock III,  P. M. Zimmerman,  D. Zuev,  B. Albrecht,  E. Alguire,  
 B. Austin,  S. A. Baeppler,  G. J. O. Beran,  Y. A. Bernard,  E. Berquist,  
 K. Brandhorst,  K. B. Bravaya,  S. T. Brown,  D. Casanova,  C.-M. Chang,  
 Y. Chen,  S. H. Chien,  K. D. Closser,  M. P. Coons,  D. L. Crittenden,  
 S. Dasgupta,  M. Diedenhofen,  R. A. DiStasio Jr.,  H. Do,  A. D. Dutoi,  
 R. G. Edgar,  P.-T. Fang,  S. Fatehi,  Q. Feng,  L. Fusti-Molnar,  
 A. Ghysels,  A. Golubeva-Zadorozhnaya,  J. Gomes,  A. Gunina,  
 M. W. D. Hanson-Heine,  P. H. P. Harbach,  A. W. Hauser,  E. G. Hohenstein,  
 Z. C. Holden,  K. Hui,  T.-C. Jagau,  H. Ji,  B. Kaduk,  K. Khistyaev,  
 Jaehoon Kim,  Jihan Kim,  R. A. King,  P. Klunzinger,  D. Kosenkov,  
 T. Kowalczyk,  C. M. Krauter,  A. Kunitsa,  K. U. Lao,  A. Laurent,  
 K. V. Lawler,  D. Lefrancois,  S. Lehtola,  S. V. Levchenko,  C. Y. Lin,  
 Y.-S. Lin,  F. Liu,  E. Livshits,  R. C. Lochan,  A. Luenser,  P. Manohar,  
 S. F. Manzer,  S.-P. Mao,  Y. Mao,  N. Mardirossian,  A. V. Marenich,  
 L. A. Martinez-Martinez,  S. A. Maurer,  N. J. Mayhall,  J.-M. Mewes,  
 A. F. Morrison,  K. Nanda,  C. M. Oana,  R. Olivares-Amaya,  D. P. O'Neill,  
 J. A. Parkhill,  T. M. Perrine,  R. Peverati,  P. A. Pieniazek,  F. Plasser,  
 A. Prociuk,  D. R. Rehn,  E. Rosta,  N. J. Russ,  N. Sergueev,  
 S. M. Sharada,  S. Sharma,  D. W. Small,  A. Sodt,  T. Stauch,  T. Stein,  
 D. Stuck,  Y.-C. Su,  A. J. W. Thom,  T. Tsuchimochi,  L. Vogt,  O. Vydrov,  
 T. Wang,  M. A. Watson,  J. Wenzel,  A. White,  C. F. Williams,  
 V. Vanovschi,  S. Yeganeh,  S. R. Yost,  Z.-Q. You,  I. Y. Zhang,  X. Zhang,  
 Y. Zhao,  B. R. Brooks,  G. K. L. Chan,  D. M. Chipman,  C. J. Cramer,  
 W. A. Goddard III,  M. S. Gordon,  W. J. Hehre,  A. Klamt,  
 H. F. Schaefer III,  M. W. Schmidt,  C. D. Sherrill,  D. G. Truhlar,  
 A. Warshel,  X. Xu,  A. Aspuru-Guzik,  R. Baer,  A. T. Bell,  N. A. Besley,  
 J.-D. Chai,  A. Dreuw,  B. D. Dunietz,  T. R. Furlani,  S. R. Gwaltney,  
 C.-P. Hsu,  Y. Jung,  J. Kong,  D. S. Lambrecht,  W. Liang,  C. Ochsenfeld,  
 V. A. Rassolov,  L. V. Slipchenko,  J. E. Subotnik,  T. Van Voorhis,  
 J. M. Herbert,  A. I. Krylov,  P. M. W. Gill,  M. Head-Gordon

 Contributors to earlier versions of Q-Chem not listed above: 
 R. D. Adamson,  J. Baker,  E. F. C. Byrd,  A. K. Chakraborty,  C.-L. Cheng,  
 H. Dachsel,  R. J. Doerksen,  G. Hawkins,  A. Heyden,  S. Hirata,  
 G. Kedziora,  F. J. Keil,  C. Kelley,  P. P. Korambath,  W. Kurlancheek,  
 A. M. Lee,  M. S. Lee,  D. Liotard,  I. Lotan,  P. E. Maslen,  N. Nair,  
 D. Neuhauser,  R. Olson,  B. Peters,  J. Ritchie,  N. E. Schultz,  
 N. Shenvi,  A. C. Simmonett,  K. S. Thanthiriwatte,  Q. Wu,  W. Zhang

 Please cite Q-Chem as follows:
 Y. Shao et al., Mol. Phys. 113, 184-215 (2015)
 DOI: 10.1080/00268976.2014.952696

 Q-Chem 4.4.1 for Intel X86 EM64T Linux

 Parts of Q-Chem use Armadillo 5.200.1 (Boston Tea Smuggler).
 http://arma.sourceforge.net/

 Q-Chem begins on Tue Sep  6 22:46:17 2016  

Host: nid01047
0

     Scratch files written to /dev/shm/eg_qchem/qchem10307.0//
 Parallel job on  16  processors

Checking the input file for inconsistencies... 	...done.

--------------------------------------------------------------
User input:
--------------------------------------------------------------
$comment
<SCF Fix Strategy>{
    "current_method_id": 1, 
    "methods": [
        "increase_iter", 
        "rca_diis", 
        "gwh", 
        "gdm", 
        "rca", 
        "core+rca", 
        "fon"
    ], 
    "version": 2.0
}</SCF Fix Strategy>
$end


$molecule
 -1  2
 S           1.83794975       -1.27576249       -0.14871336
 C           3.23937819       -0.19806434       -0.14823333
 C           2.83626844        1.12431397       -0.14890172
 C           1.43724334        1.31134696       -0.14931220
 C           0.69606563        0.10654716       -0.14908151
 H           0.95807640        2.28459073       -0.14860036
 C          -0.69610330       -0.10652413       -0.14907621
 S          -1.37227619       -1.76708715       -0.14879558
 C          -1.76370068        0.82144290       -0.14930002
 C          -3.03188514       -1.15788063       -0.14963541
 C          -3.04274326        0.22453192       -0.14954328
 H          -3.96526719        0.80047726       -0.14963437
 H           4.24016475       -0.60708034       -0.14954918
 H           3.54430111        1.94981573       -0.14910914
 H          -3.86452545       -1.84750176       -0.14808492
 H          -1.59755920        1.89345064       -0.15044792
$end


$rem
         jobtype = opt
        exchange = b3lyp
           basis = 6-31++g**
  max_scf_cycles = 200
      mem_static = 100
       mem_total = 1500
   scf_algorithm = rca_diis
       scf_guess = sad
$end


$opt
CONSTRAINT
tors 4 5 7 9 0.0
ENDCONSTRAINT
$end

--------------------------------------------------------------
 Atom   8: ( -1.6238034478,  0.0001097823,  1.1690959245)
         ->( -1.6238034351,  0.0001097396,  1.1690959245)
 Atom  10: ( -3.1721440811, -0.0004063991,  0.3158221272)
         ->( -3.1721440878, -0.0004062199,  0.3158221336)
 Atom  11: ( -2.9737344620, -0.0000444291, -1.0523210881)
         ->( -2.9737344711, -0.0000445391, -1.0523210626)
 Atom   9: ( -1.6191084325,  0.0001565219, -1.4488573142)
         ->( -1.6191084393,  0.0001565276, -1.4488573308)
 Atom   7: ( -0.7041899022,  0.0000680162, -0.3700565450)
         ->( -0.7041899065,  0.0000681393, -0.3700565709)
 Atom  16: ( -1.2926972442, -0.0008037242, -2.4833908892)
         ->( -1.2926972557, -0.0008036214, -2.4833909050)
 Atom  14: (  3.7985061461, -0.0000901469, -1.7612040759)
         ->(  3.7985061097, -0.0000904774, -1.7612041217)
 Atom  15: ( -4.0995318582,  0.0011131646,  0.8715371573)
         ->( -4.0995318522,  0.0011128877,  0.8715371552)
 ----------------------------------------------------------------
             Standard Nuclear Orientation (Angstroms)
    I     Atom           X                Y                Z
 ----------------------------------------------------------------
    1      S       1.6238034351    -0.0001097396     1.1690959245
    2      C       3.1721440878     0.0004062199     0.3158221336
    3      C       2.9737344711     0.0000445391    -1.0523210626
    4      C       1.6191084393    -0.0001565276    -1.4488573308
    5      C       0.7041899065    -0.0000681393    -0.3700565709
    6      H       1.2926972557     0.0008036214    -2.4833909050
    7      C      -0.7041899065     0.0000681393    -0.3700565709
    8      S      -1.6238034351     0.0001097396     1.1690959245
    9      C      -1.6191084393     0.0001565276    -1.4488573308
   10      C      -3.1721440878    -0.0004062199     0.3158221336
   11      C      -2.9737344711    -0.0000445391    -1.0523210626
   12      H      -3.7985061097     0.0000904774    -1.7612041217
   13      H       4.0995318522    -0.0011128877     0.8715371552
   14      H       3.7985061097    -0.0000904774    -1.7612041217
   15      H      -4.0995318522     0.0011128877     0.8715371552
   16      H      -1.2926972557    -0.0008036214    -2.4833909050
 ----------------------------------------------------------------
 Molecular Point Group                 C2    NOp =  2
 Largest Abelian Subgroup              C2    NOp =  2
 Nuclear Repulsion Energy =   627.9306789677 hartrees
 There are       44 alpha and       43 beta electrons
 Requested basis set is 6-31++G(d,p)
 There are 76 shells and 234 basis functions

 Total QAlloc Memory Limit   1500 MB
 Mega-Array Size        98 MB
 MEM_STATIC part       100 MB
 A cutoff of  1.0D-12 yielded   2525 shell pairs
 There are     24863 function pairs
 
 -------------------------------------------------------
 OpenMP Integral Computing Module                       
 Release: version 1.0, May 2013, Q-Chem Inc. Pittsburgh 
 -------------------------------------------------------
 Integral Job Info:
 Integral job number is                      11
 Integral operator is                         1
 short-range coefficients                     0
 long-range coefficients              100000000
 Omega coefficients                           0
 if combine SR and LR in K                    0
 Integral screening is                        0
 Integral computing path is                   2
 max size of driver memory is            800000
 size of driver memory is                593474
 size of scratch memory is             15166112
 max col of scratch BK array               1296
 max len of scratch array in speh3          155
 max len of scratch index in speh4           18
 max int batch size is                      520
 min int batch size is                       52
 fixed nKL is                                52
 max L of basis functions is                  2
 order of int derivative is                   0
 number of shells is                         76
 number of basis is                         234
 number of cartesian basis is               234
 number of contracted shell pairs          2525
 number of primitive shell pairs           8230
 maxK2 (contraction) of shell pair           36
 max number of K2 of shell pair               1
 max number of CS2 of shell pair            258
 max number of PS2 of shell pair           1524
 mem total for path MDJ                   51992
 -------------------------------------------------------
 Smallest overlap matrix eigenvalue = 4.75E-07
 Linear dependence detected in AO basis
 Number of orthogonalized atomic orbitals = 233
 Maximum deviation from orthogonality = 1.933E-10

 Scale SEOQF with 1.000000e-01/1.000000e-01/1.000000e-01

 Standard Electronic Orientation quadrupole field applied
 Nucleus-field energy     =     0.0000000035 hartrees
 Guess from superposition of atomic densities
 Warning:  Energy on first SCF cycle will be non-variational
 An unrestricted hybrid HF-DFT SCF calculation will be
 performed using Relaxed Constraint Minimization + Pulay DIIS
 Exchange:     0.2000 Hartree-Fock + 0.0800 Slater + 0.7200 B88
 Correlation:  0.1900 VWN1RPA + 0.8100 LYP
 Using SG-1 standard quadrature grid
 SCF converges when DIIS error is below 1.0E-08
 Inaccurate integrated density:
   Number of electrons =    87
   Numerical integral  =    86.001009121079
   Relative error      =    -1.1482653781 %
 Inaccurate integrated density:
   Number of electrons =    87
   Numerical integral  =    86.001009121079
   Relative error      =    -1.1482653781 %
 ---------------------------------------
  Cycle       Energy         DIIS Error
 ---------------------------------------
    1   -1106.9982495354      4.29E-02
 Inaccurate integrated density:
   Number of electrons =    87
   Numerical integral  =    86.919494369035
   Relative error      =    -0.0925352080 %
 Inaccurate integrated density:
   Number of electrons =    87
   Numerical integral  =    86.919494369053
   Relative error      =    -0.0925352080 %
    2   -1060.3293344341      7.01E-02
    3   -1099.1247768941      1.74E-02
 Inaccurate integrated density:
   Number of electrons =    87
   Numerical integral  =    86.983548355799
   Relative error      =    -0.0189099359 %
    4   -1100.9990503503      6.68E-03
    5   -1104.4893054895      5.91E-03
    6   -1104.5860157838      2.60E-03
    7   -1104.8133727178      6.56E-03
 Inaccurate integrated density:
   Number of electrons =    87
   Numerical integral  =    86.957012769637
   Relative error      =    -0.0494106096 %
    8   -1105.3614138953      5.05E-03
 Inaccurate integrated density:
   Number of electrons =    87
   Numerical integral  =    86.957127181579
   Relative error      =    -0.0492791016 %
 Inaccurate integrated density:
   Number of electrons =    87
   Numerical integral  =    86.990603829932
   Relative error      =    -0.0108001955 %
Recomputing EXC -1105.110404 -1106.081961 -1105.361414 
Recomputing EXC -1105.345417 -1105.492607 -1105.361414 
Recomputing EXC -1105.359385 -1105.387412 -1105.361414 
    9   -1105.3593854417      5.04E-03
 Inaccurate integrated density:
   Number of electrons =    87
   Numerical integral  =    86.957102136450
   Relative error      =    -0.0493078891 %
 Inaccurate integrated density:
   Number of electrons =    87
   Numerical integral  =    86.990474958379
   Relative error      =    -0.0109483237 %
Recomputing EXC -1105.196647 -1106.062757 -1105.359385 
   10   -1105.4490933062      4.88E-03
 Inaccurate integrated density:
   Number of electrons =    87
   Numerical integral  =    86.954163017280
   Relative error      =    -0.0526861870 %
 Inaccurate integrated density:
   Number of electrons =    87
   Numerical integral  =    86.954163017262
   Relative error      =    -0.0526861871 %
   11   -5756.5498273051      1.38E+01
 Inaccurate integrated density:
   Number of electrons =    87
   Numerical integral  =    86.814958844071
   Relative error      =    -0.2126909838 %
 Inaccurate integrated density:
   Number of electrons =    87
   Numerical integral  =    86.936222035421
   Relative error      =    -0.0733080053 %
Recomputing EXC -5504.328197 -6077.598565 -5756.549827 
 Inaccurate integrated density:
   Number of electrons =    87
   Numerical integral  =    86.951555682621
   Relative error      =    -0.0556831234 %
Recomputing EXC -5724.509492 -5802.626239 -5756.549827 
 Inaccurate integrated density:
   Number of electrons =    87
   Numerical integral  =    86.953777716186
   Relative error      =    -0.0531290619 %
Recomputing EXC -5751.913873 -5763.345150 -5756.549827 
   12   -5751.9138734967      1.38E+01
 Inaccurate integrated density:
   Number of electrons =    87
   Numerical integral  =    86.814933257560
   Relative error      =    -0.2127203936 %
 Inaccurate integrated density:
   Number of electrons =    87
   Numerical integral  =    86.935820359511
   Relative error      =    -0.0737697017 %
Recomputing EXC -5501.187393 -6072.335280 -5751.913873 
 Inaccurate integrated density:
   Number of electrons =    87
   Numerical integral  =    86.951165923607
   Relative error      =    -0.0561311223 %
Recomputing EXC -5719.937912 -5797.947511 -5751.913873 
 Inaccurate integrated density:
   Number of electrons =    87
   Numerical integral  =    86.953391660174
   Relative error      =    -0.0535728044 %
Recomputing EXC -5747.262386 -5758.704945 -5751.913873 
   13   -5747.2623856020      1.37E+01
 Inaccurate integrated density:
   Number of electrons =    87
   Numerical integral  =    86.814897183876
   Relative error      =    -0.2127618576 %
 Inaccurate integrated density:
   Number of electrons =    87
   Numerical integral  =    86.935497058546
   Relative error      =    -0.0741413120 %
Recomputing EXC -5497.048196 -6065.755517 -5747.262386 
 Inaccurate integrated density:
   Number of electrons =    87
   Numerical integral  =    86.950792795343
   Relative error      =    -0.0565600054 %
Recomputing EXC -5715.358011 -5792.955165 -5747.262386 
 Inaccurate integrated density:
   Number of electrons =    87
   Numerical integral  =    86.953008133618
   Relative error      =    -0.0540136395 %
Recomputing EXC -5742.621217 -5753.992442 -5747.262386 
   14   -5742.6212174305      1.37E+01
 Inaccurate integrated density:
   Number of electrons =    87
   Numerical integral  =    86.814889669668
   Relative error      =    -0.2127704946 %
 Inaccurate integrated density:
   Number of electrons =    87
   Numerical integral  =    86.934547967700
   Relative error      =    -0.0752322210 %
Recomputing EXC -5500.722258 -6069.537336 -5742.621217 
 Inaccurate integrated density:
   Number of electrons =    87
   Numerical integral  =    86.950283155229
   Relative error      =    -0.0571457986 %
Recomputing EXC -5710.862887 -5790.359114 -5742.621217 
 Inaccurate integrated density:
   Number of electrons =    87
   Numerical integral  =    86.952600284546
   Relative error      =    -0.0544824316 %
Recomputing EXC -5737.921220 -5749.753956 -5742.621217 
   15   -5737.9212196405      1.36E+01
 Inaccurate integrated density:
   Number of electrons =    87
   Numerical integral  =    86.814831342630
   Relative error      =    -0.2128375372 %
 Inaccurate integrated density:
   Number of electrons =    87
   Numerical integral  =    86.934146361841
   Relative error      =    -0.0756938370 %
Recomputing EXC -5497.480477 -6063.869570 -5737.921220 
 Inaccurate integrated density:
   Number of electrons =    87
   Numerical integral  =    86.949874382339
   Relative error      =    -0.0576156525 %
Recomputing EXC -5706.280816 -5785.556584 -5737.921220 
 Inaccurate integrated density:
   Number of electrons =    87
   Numerical integral  =    86.952192126476
   Relative error      =    -0.0549515788 %
Recomputing EXC -5733.228927 -5745.041811 -5737.921220 
   16   -5733.2289266343      1.36E+01
 Inaccurate integrated density:
   Number of electrons =    87
   Numerical integral  =    86.814772668805
   Relative error      =    -0.2129049784 %
 Inaccurate integrated density:
   Number of electrons =    87
   Numerical integral  =    86.933768749164
   Relative error      =    -0.0761278745 %
Recomputing EXC -5493.807613 -6057.824530 -5733.228927 
 Inaccurate integrated density:
   Number of electrons =    87
   Numerical integral  =    86.949471297484
   Relative error      =    -0.0580789684 %
Recomputing EXC -5701.682189 -5780.661929 -5733.228927 
 Inaccurate integrated density:
   Number of electrons =    87
   Numerical integral  =    86.951784898807
   Relative error      =    -0.0554196565 %
Recomputing EXC -5728.544804 -5740.316463 -5733.228927 
   17   -5728.5448036249      1.35E+01
 Inaccurate integrated density:
   Number of electrons =    87
   Numerical integral  =    86.814715972323
   Relative error      =    -0.2129701468 %
 Inaccurate integrated density:
   Number of electrons =    87
   Numerical integral  =    86.933518811131
   Relative error      =    -0.0764151596 %
Recomputing EXC -5488.294917 -6049.749537 -5728.544804 
 Inaccurate integrated density:
   Number of electrons =    87
   Numerical integral  =    86.949098514412
   Relative error      =    -0.0585074547 %
Recomputing EXC -5697.032636 -5775.281297 -5728.544804 
 Inaccurate integrated density:
   Number of electrons =    87
   Numerical integral  =    86.951384445594
   Relative error      =    -0.0558799476 %
Recomputing EXC -5723.878045 -5735.500070 -5728.544804 
   18   -5723.8780453553      1.35E+01
 Inaccurate integrated density:
   Number of electrons =    87
   Numerical integral  =    86.814690468886
   Relative error      =    -0.2129994611 %
 Inaccurate integrated density:
   Number of electrons =    87
   Numerical integral  =    86.935066273317
   Relative error      =    -0.0746364675 %
Recomputing EXC -5457.390924 -6012.396585 -5723.878045 
 Inaccurate integrated density:
   Number of electrons =    87
   Numerical integral  =    86.949137387011
   Relative error      =    -0.0584627736 %
Recomputing EXC -5691.780470 -5763.070627 -5723.878045 
 Inaccurate integrated density:
   Number of electrons =    87
   Numerical integral  =    86.951069398960
   Relative error      =    -0.0562420702 %
Recomputing EXC -5719.406587 -5729.361724 -5723.878045 
   19   -5719.4065870421      1.34E+01
 Inaccurate integrated density:
   Number of electrons =    87
   Numerical integral  =    86.814694175808
   Relative error      =    -0.2129952002 %
 Inaccurate integrated density:
   Number of electrons =    87
   Numerical integral  =    86.934887319148
   Relative error      =    -0.0748421619 %
Recomputing EXC -5452.120455 -6004.913979 -5719.406587 
 Inaccurate integrated density:
   Number of electrons =    87
   Numerical integral  =    86.948852084504
   Relative error      =    -0.0587907075 %
Recomputing EXC -5687.340477 -5757.998360 -5719.406587 
 Inaccurate integrated density:
   Number of electrons =    87
   Numerical integral  =    86.950760063703
   Relative error      =    -0.0565976279 %
Recomputing EXC -5714.955309 -5724.779499 -5719.406587 
   20   -5714.9553090083      1.34E+01
 Inaccurate integrated density:
   Number of electrons =    87
   Numerical integral  =    86.814698080050
   Relative error      =    -0.2129907126 %
 Inaccurate integrated density:
   Number of electrons =    87
   Numerical integral  =    86.934517076280
   Relative error      =    -0.0752677284 %
Recomputing EXC -5449.626916 -6000.720862 -5714.955309 
 Inaccurate integrated density:
   Number of electrons =    87
   Numerical integral  =    86.948528883200
   Relative error      =    -0.0591622032 %
Recomputing EXC -5682.969969 -5753.687292 -5714.955309 
 Inaccurate integrated density:
   Number of electrons =    87
   Numerical integral  =    86.950448159549
   Relative error      =    -0.0569561384 %
Recomputing EXC -5710.500072 -5720.358954 -5714.955309 
   21   -5710.5000722069      1.33E+01
 Inaccurate integrated density:
   Number of electrons =    87
   Numerical integral  =    86.814700892419
   Relative error      =    -0.2129874800 %
 Inaccurate integrated density:
   Number of electrons =    87
   Numerical integral  =    86.934142932794
   Relative error      =    -0.0756977784 %
Recomputing EXC -5447.191692 -5996.554128 -5710.500072 
 Inaccurate integrated density:
   Number of electrons =    87
   Numerical integral  =    86.948202563881
   Relative error      =    -0.0595372829 %
Recomputing EXC -5678.601778 -5749.382141 -5710.500072 
 Inaccurate integrated density:
   Number of electrons =    87
   Numerical integral  =    86.950133554947
   Relative error      =    -0.0573177529 %
Recomputing EXC -5706.041178 -5715.936718 -5710.500072 
   22   -5706.0411784070      1.33E+01
 Inaccurate integrated density:
   Number of electrons =    87
   Numerical integral  =    86.814702841742
   Relative error      =    -0.2129852394 %
 Inaccurate integrated density:
   Number of electrons =    87
   Numerical integral  =    86.933778742185
   Relative error      =    -0.0761163883 %
Recomputing EXC -5444.608645 -5992.184811 -5706.041178 
 Inaccurate integrated density:
   Number of electrons =    87
   Numerical integral  =    86.947876137791
   Relative error      =    -0.0599124853 %
Recomputing EXC -5674.231288 -5745.030319 -5706.041178 
 Inaccurate integrated density:
   Number of electrons =    87
   Numerical integral  =    86.949816720058
   Relative error      =    -0.0576819310 %
Recomputing EXC -5701.580509 -5711.502897 -5706.041178 
   23   -5701.5805088765      1.33E+01
 Inaccurate integrated density:
   Number of electrons =    87
   Numerical integral  =    86.814704242085
   Relative error      =    -0.2129836298 %
 Inaccurate integrated density:
   Number of electrons =    87
   Numerical integral  =    86.933425323535
   Relative error      =    -0.0765226166 %
Recomputing EXC -5441.865547 -5987.610731 -5701.580509 
 Inaccurate integrated density:
   Number of electrons =    87
   Numerical integral  =    86.947550200771
   Relative error      =    -0.0602871256 %
Recomputing EXC -5669.858986 -5740.631923 -5701.580509 
 Inaccurate integrated density:
   Number of electrons =    87
   Numerical integral  =    86.949498154520
   Relative error      =    -0.0580480983 %
Recomputing EXC -5697.119857 -5707.058934 -5701.580509 
   24   -5697.1198570524      1.32E+01
 Inaccurate integrated density:
   Number of electrons =    87
   Numerical integral  =    86.814705387576
   Relative error      =    -0.2129823131 %
 Inaccurate integrated density:
   Number of electrons =    87
   Numerical integral  =    86.933081525106
   Relative error      =    -0.0769177872 %
Recomputing EXC -5438.980692 -5982.862110 -5697.119857 
 Inaccurate integrated density:
   Number of electrons =    87
   Numerical integral  =    86.947224921961
   Relative error      =    -0.0606610092 %
Recomputing EXC -5665.486152 -5736.194591 -5697.119857 
 Inaccurate integrated density:
   Number of electrons =    87
   Numerical integral  =    86.949178299207
   Relative error      =    -0.0584157480 %
Recomputing EXC -5692.660725 -5702.607672 -5697.119857 
   25   -5692.6607252590      1.32E+01
 Inaccurate integrated density:
   Number of electrons =    87
   Numerical integral  =    86.814706534366
   Relative error      =    -0.2129809950 %
 Inaccurate integrated density:
   Number of electrons =    87
   Numerical integral  =    86.932746020545
   Relative error      =    -0.0773034247 %
Recomputing EXC -5435.975354 -5977.970365 -5692.660725 
 Inaccurate integrated density:
   Number of electrons =    87
   Numerical integral  =    86.946900376586
   Relative error      =    -0.0610340499 %
Recomputing EXC -5661.114047 -5731.726189 -5692.660725 
 Inaccurate integrated density:
   Number of electrons =    87
   Numerical integral  =    86.948857528346
   Relative error      =    -0.0587844502 %
Recomputing EXC -5688.204339 -5698.151781 -5692.660725 
   26   -5688.2043388125      1.31E+01
 Inaccurate integrated density:
   Number of electrons =    87
   Numerical integral  =    86.814707907863
   Relative error      =    -0.2129794162 %
 Inaccurate integrated density:
   Number of electrons =    87
   Numerical integral  =    86.932417676776
   Relative error      =    -0.0776808313 %
Recomputing EXC -5432.867870 -5972.962069 -5688.204339 
 Inaccurate integrated density:
   Number of electrons =    87
   Numerical integral  =    86.946576625038
   Relative error      =    -0.0614061781 %
Recomputing EXC -5656.743736 -5727.233380 -5688.204339 
 Inaccurate integrated density:
   Number of electrons =    87
   Numerical integral  =    86.948536158710
   Relative error      =    -0.0591538406 %
Recomputing EXC -5683.751694 -5693.693490 -5688.204339 
   27   -5683.7516943093      1.31E+01
 Inaccurate integrated density:
   Number of electrons =    87
   Numerical integral  =    86.814709702916
   Relative error      =    -0.2129773530 %
 Inaccurate integrated density:
   Number of electrons =    87
   Numerical integral  =    86.932095611780
   Relative error      =    -0.0780510209 %
Recomputing EXC -5429.672611 -5967.858294 -5683.751694 
 Inaccurate integrated density:
   Number of electrons =    87
   Numerical integral  =    86.946253735046
   Relative error      =    -0.0617773160 %
Recomputing EXC -5652.376061 -5722.721469 -5683.751694 
 Inaccurate integrated density:
   Number of electrons =    87
   Numerical integral  =    86.948214461445
   Relative error      =    -0.0595236075 %
Recomputing EXC -5679.303607 -5689.234591 -5683.751694 
   28   -5679.3036066978      1.30E+01
 Inaccurate integrated density:
   Number of electrons =    87
   Numerical integral  =    86.814712097776
   Relative error      =    -0.2129746003 %
 Inaccurate integrated density:
   Number of electrons =    87
   Numerical integral  =    86.931779179100
   Relative error      =    -0.0784147367 %
Recomputing EXC -5426.400172 -5962.675202 -5679.303607 
 Inaccurate integrated density:
   Number of electrons =    87
   Numerical integral  =    86.945931788913
   Relative error      =    -0.0621473691 %
Recomputing EXC -5648.011660 -5718.194542 -5679.303607 
 Inaccurate integrated density:
   Number of electrons =    87
   Numerical integral  =    86.947892673314
   Relative error      =    -0.0598934789 %
Recomputing EXC -5674.860748 -5684.776501 -5679.303607 
   29   -5674.8607484464      1.30E+01
 Inaccurate integrated density:
   Number of electrons =    87
   Numerical integral  =    86.814715257501
   Relative error      =    -0.2129709684 %
 Inaccurate integrated density:
   Number of electrons =    87
   Numerical integral  =    86.931467937083
   Relative error      =    -0.0787724861 %
Recomputing EXC -5423.057828 -5957.424833 -5674.860748 
 Inaccurate integrated density:
   Number of electrons =    87
   Numerical integral  =    86.945610886411
   Relative error      =    -0.0625162225 %
Recomputing EXC -5643.650992 -5713.655656 -5674.860748 
 Inaccurate integrated density:
   Number of electrons =    87
   Numerical integral  =    86.947571006400
   Relative error      =    -0.0602632110 %
Recomputing EXC -5670.423681 -5680.320325 -5674.860748 
   30   -5670.4236807638      1.30E+01
 Inaccurate integrated density:
   Number of electrons =    87
   Numerical integral  =    86.814719336068
   Relative error      =    -0.2129662804 %
 Inaccurate integrated density:
   Number of electrons =    87
   Numerical integral  =    86.931161618147
   Relative error      =    -0.0791245768 %
Recomputing EXC -5419.650001 -5952.115826 -5670.423681 
 Inaccurate integrated density:
   Number of electrons =    87
   Numerical integral  =    86.945291146400
   Relative error      =    -0.0628837398 %
Recomputing EXC -5639.294359 -5709.107019 -5670.423681 
 Inaccurate integrated density:
   Number of electrons =    87
   Numerical integral  =    86.947249656372
   Relative error      =    -0.0606325789 %
Recomputing EXC -5665.992878 -5675.866919 -5670.423681 
   31   -5665.9928782576      1.29E+01
 Inaccurate integrated density:
   Number of electrons =    87
   Numerical integral  =    86.814724483815
   Relative error      =    -0.2129603634 %
 Inaccurate integrated density:
   Number of electrons =    87
   Numerical integral  =    86.930860103993
   Relative error      =    -0.0794711448 %
Recomputing EXC -5416.178641 -5946.754028 -5665.992878 
 Inaccurate integrated density:
   Number of electrons =    87
   Numerical integral  =    86.944972707969
   Relative error      =    -0.0632497610 %
Recomputing EXC -5634.941924 -5704.550133 -5665.992878 
 Inaccurate integrated density:
   Number of electrons =    87
   Numerical integral  =    86.946928809399
   Relative error      =    -0.0610013685 %
Recomputing EXC -5661.568748 -5671.416931 -5665.992878 
   32   -5661.5687482706      1.29E+01
 Inaccurate integrated density:
   Number of electrons =    87
   Numerical integral  =    86.814730852695
   Relative error      =    -0.2129530429 %
 Inaccurate integrated density:
   Number of electrons =    87
   Numerical integral  =    86.930563403807
   Relative error      =    -0.0798121795 %
Recomputing EXC -5412.643578 -5941.343010 -5661.568748 
 Inaccurate integrated density:
   Number of electrons =    87
   Numerical integral  =    86.944655731622
   Relative error      =    -0.0636141016 %
Recomputing EXC -5630.593735 -5699.985919 -5661.568748 
 Inaccurate integrated density:
   Number of electrons =    87
   Numerical integral  =    86.946608648185
   Relative error      =    -0.0613693699 %
Recomputing EXC -5657.151646 -5666.970846 -5661.568748 
   33   -5657.1516460030      1.28E+01
 Inaccurate integrated density:
   Number of electrons =    87
   Numerical integral  =    86.814738596767
   Relative error      =    -0.2129441416 %
 Inaccurate integrated density:
   Number of electrons =    87
   Numerical integral  =    86.930271634843
   Relative error      =    -0.0801475462 %
Recomputing EXC -5409.042817 -5935.884502 -5657.151646 
 Inaccurate integrated density:
   Number of electrons =    87
   Numerical integral  =    86.944340399796
   Relative error      =    -0.0639765520 %
Recomputing EXC -5626.249729 -5695.414832 -5657.151646 
 Inaccurate integrated density:
   Number of electrons =    87
   Numerical integral  =    86.946289356715
   Relative error      =    -0.0617363716 %
Recomputing EXC -5652.741886 -5662.529014 -5657.151646 
   34   -5652.7418862493      1.28E+01
 Inaccurate integrated density:
   Number of electrons =    87
   Numerical integral  =    86.814747879142
   Relative error      =    -0.2129334723 %
 Inaccurate integrated density:
   Number of electrons =    87
   Numerical integral  =    86.929985004300
   Relative error      =    -0.0804770066 %
Recomputing EXC -5405.372827 -5930.378805 -5652.741886 
 Inaccurate integrated density:
   Number of electrons =    87
   Numerical integral  =    86.944026916529
   Relative error      =    -0.0643368776 %
Recomputing EXC -5621.909755 -5690.836951 -5652.741886 
 Inaccurate integrated density:
   Number of electrons =    87
   Numerical integral  =    86.945971124245
   Relative error      =    -0.0621021560 %
Recomputing EXC -5648.339752 -5658.091680 -5652.741886 
   35   -5648.3397522905      1.28E+01
 Inaccurate integrated density:
   Number of electrons =    87
   Numerical integral  =    86.814758870739
   Relative error      =    -0.2129208382 %
 Inaccurate integrated density:
   Number of electrons =    87
   Numerical integral  =    86.929703787662
   Relative error      =    -0.0808002441 %
Recomputing EXC -5401.628877 -5924.825204 -5648.339752 
 Inaccurate integrated density:
   Number of electrons =    87
   Numerical integral  =    86.943715506067
   Relative error      =    -0.0646948206 %
Recomputing EXC -5617.573583 -5686.252088 -5648.339752 
 Inaccurate integrated density:
   Number of electrons =    87
   Numerical integral  =    86.945654148118
   Relative error      =    -0.0624664964 %
Recomputing EXC -5643.945502 -5653.659013 -5648.339752 
   36   -5643.9455022270      1.27E+01
 Inaccurate integrated density:
   Number of electrons =    87
   Numerical integral  =    86.814771755703
   Relative error      =    -0.2129060279 %
 Inaccurate integrated density:
   Number of electrons =    87
   Numerical integral  =    86.929428306869
   Relative error      =    -0.0811168887 %
Recomputing EXC -5397.805400 -5919.222397 -5643.945502 
 Inaccurate integrated density:
   Number of electrons =    87
   Numerical integral  =    86.943406409773
   Relative error      =    -0.0650501037 %
Recomputing EXC -5613.240925 -5681.659890 -5643.945502 
 Inaccurate integrated density:
   Number of electrons =    87
   Numerical integral  =    86.945338635538
   Relative error      =    -0.0628291546 %
Recomputing EXC -5639.559373 -5649.231129 -5643.945502 
   37   -5639.5593730374      1.27E+01
 Inaccurate integrated density:
   Number of electrons =    87
   Numerical integral  =    86.814786730711
   Relative error      =    -0.2128888153 %
 Inaccurate integrated density:
   Number of electrons =    87
   Numerical integral  =    86.929158901191
   Relative error      =    -0.0814265504 %
Recomputing EXC -5393.896461 -5913.568979 -5639.559373 
 Inaccurate integrated density:
   Number of electrons =    87
   Numerical integral  =    86.943099880681
   Relative error      =    -0.0654024360 %
Recomputing EXC -5608.911453 -5677.059958 -5639.559373 
 Inaccurate integrated density:
   Number of electrons =    87
   Numerical integral  =    86.945024803776
   Relative error      =    -0.0631898807 %
Recomputing EXC -5635.181582 -5644.808118 -5639.559373 
   38   -5635.1815823792      1.26E+01
 Inaccurate integrated density:
   Number of electrons =    87
   Numerical integral  =    86.814804003102
   Relative error      =    -0.2128689620 %
 Inaccurate integrated density:
   Number of electrons =    87
   Numerical integral  =    86.928895894245
   Relative error      =    -0.0817288572 %
Recomputing EXC -5389.896307 -5907.863972 -5635.181582 
 Inaccurate integrated density:
   Number of electrons =    87
   Numerical integral  =    86.942796176006
   Relative error      =    -0.0657515218 %
Recomputing EXC -5604.584826 -5672.451980 -5635.181582 
 Inaccurate integrated density:
   Number of electrons =    87
   Numerical integral  =    86.944712878987
   Relative error      =    -0.0635484150 %
Recomputing EXC -5630.812328 -5640.390074 -5635.181582 
   39   -5630.8123282000      1.26E+01
 Inaccurate integrated density:
   Number of electrons =    87
   Numerical integral  =    86.814823792677
   Relative error      =    -0.2128462153 %
 Inaccurate integrated density:
   Number of electrons =    87
   Numerical integral  =    86.928639556469
   Relative error      =    -0.0820234983 %
Recomputing EXC -5385.800025 -5902.107398 -5630.812328 
 Inaccurate integrated density:
   Number of electrons =    87
   Numerical integral  =    86.942495546876
   Relative error      =    -0.0660970726 %
Recomputing EXC -5600.260722 -5667.835870 -5630.812328 
 Inaccurate integrated density:
   Number of electrons =    87
   Numerical integral  =    86.944403093068
   Relative error      =    -0.0639044907 %
Recomputing EXC -5626.451786 -5635.977123 -5630.812328 
   40   -5626.4517861727      1.26E+01
 Inaccurate integrated density:
   Number of electrons =    87
   Numerical integral  =    86.814846327930
   Relative error      =    -0.2128203127 %
 Inaccurate integrated density:
   Number of electrons =    87
   Numerical integral  =    86.928390063146
   Relative error      =    -0.0823102722 %
Recomputing EXC -5381.604279 -5896.300880 -5626.451786 
 Inaccurate integrated density:
   Number of electrons =    87
   Numerical integral  =    86.942198225661
   Relative error      =    -0.0664388211 %
Recomputing EXC -5595.938874 -5663.211924 -5626.451786 
 Inaccurate integrated density:
   Number of electrons =    87
   Numerical integral  =    86.944095678742
   Relative error      =    -0.0642578405 %
Recomputing EXC -5622.100105 -5631.569447 -5626.451786 
   41   -5622.1001049115      1.25E+01
 Inaccurate integrated density:
   Number of electrons =    87
   Numerical integral  =    86.814871834738
   Relative error      =    -0.2127909946 %
 Inaccurate integrated density:
   Number of electrons =    87
   Numerical integral  =    86.928147451453
   Relative error      =    -0.0825891363 %
Recomputing EXC -5377.308092 -5890.448208 -5622.100105 
 Inaccurate integrated density:
   Number of electrons =    87
   Numerical integral  =    86.941904411701
   Relative error      =    -0.0667765383 %
Recomputing EXC -5591.619108 -5658.580953 -5622.100105 
 Inaccurate integrated density:
   Number of electrons =    87
   Numerical integral  =    86.943790862671
   Relative error      =    -0.0646082038 %
Recomputing EXC -5617.757399 -5627.167316 -5622.100105 
   42   -5617.7573991375      1.25E+01
 Inaccurate integrated density:
   Number of electrons =    87
   Numerical integral  =    86.814900534895
   Relative error      =    -0.2127580059 %
 Inaccurate integrated density:
   Number of electrons =    87
   Numerical integral  =    86.927911581259
   Relative error      =    -0.0828602514 %
Recomputing EXC -5372.913614 -5884.555833 -5617.757399 
 Inaccurate integrated density:
   Number of electrons =    87
   Numerical integral  =    86.941614255892
   Relative error      =    -0.0671100507 %
Recomputing EXC -5587.301380 -5653.944416 -5617.757399 
 Inaccurate integrated density:
   Number of electrons =    87
   Numerical integral  =    86.943488856879
   Relative error      =    -0.0649553369 %
Recomputing EXC -5613.423741 -5622.771101 -5617.757399 
   43   -5613.4237408480      1.25E+01
 Inaccurate integrated density:
   Number of electrons =    87
   Numerical integral  =    86.814932632686
   Relative error      =    -0.2127211119 %
 Inaccurate integrated density:
   Number of electrons =    87
   Numerical integral  =    86.927682101368
   Relative error      =    -0.0831240214 %
Recomputing EXC -5368.426804 -5878.633218 -5613.423741 
 Inaccurate integrated density:
   Number of electrons =    87
   Numerical integral  =    86.941327845603
   Relative error      =    -0.0674392579 %
Recomputing EXC -5582.985810 -5649.304502 -5613.423741 
 Inaccurate integrated density:
   Number of electrons =    87
   Numerical integral  =    86.943189848984
   Relative error      =    -0.0652990242 %
Recomputing EXC -5609.099149 -5618.381289 -5613.423741 
   44   -5609.0991487586      1.24E+01
 Inaccurate integrated density:
   Number of electrons =    87
   Numerical integral  =    86.814968300697
   Relative error      =    -0.2126801141 %
 Inaccurate integrated density:
   Number of electrons =    87
   Numerical integral  =    86.927458426760
   Relative error      =    -0.0833811187 %
Recomputing EXC -5363.857977 -5872.692998 -5609.099149 
 Inaccurate integrated density:
   Number of electrons =    87
   Numerical integral  =    86.941045191177
   Relative error      =    -0.0677641481 %
Recomputing EXC -5578.672708 -5644.664178 -5609.099149 
 Inaccurate integrated density:
   Number of electrons =    87
   Numerical integral  =    86.942893991566
   Relative error      =    -0.0656390902 %
Recomputing EXC -5604.783577 -5613.998480 -5609.099149 
   45   -5604.7835765047      1.24E+01
 Inaccurate integrated density:
   Number of electrons =    87
   Numerical integral  =    86.815007665694
   Relative error      =    -0.2126348670 %
 Inaccurate integrated density:
   Number of electrons =    87
   Numerical integral  =    86.927239727910
   Relative error      =    -0.0836324967 %
Recomputing EXC -5359.222146 -5866.750939 -5604.783577 
 Inaccurate integrated density:
   Number of electrons =    87
   Numerical integral  =    86.940766214614
   Relative error      =    -0.0680848108 %
Recomputing EXC -5574.362587 -5640.027173 -5604.783577 
 Inaccurate integrated density:
   Number of electrons =    87
   Numerical integral  =    86.942601391644
   Relative error      =    -0.0659754119 %
Recomputing EXC -5600.476900 -5609.623376 -5604.783577 
   46   -5600.4768999173      1.24E+01
 Inaccurate integrated density:
   Number of electrons =    87
   Numerical integral  =    86.815050791165
   Relative error      =    -0.2125852975 %
 Inaccurate integrated density:
   Number of electrons =    87
   Numerical integral  =    86.927024931262
   Relative error      =    -0.0838793894 %
Recomputing EXC -5354.539194 -5860.825707 -5600.476900 
 Inaccurate integrated density:
   Number of electrons =    87
   Numerical integral  =    86.940490741225
   Relative error      =    -0.0684014469 %
Recomputing EXC -5570.056167 -5635.397925 -5600.476900 
 Inaccurate integrated density:
   Number of electrons =    87
   Numerical integral  =    86.942312100500
   Relative error      =    -0.0663079305 %
Recomputing EXC -5596.178904 -5605.256760 -5600.476900 
   47   -5596.1789038518      1.23E+01
 Inaccurate integrated density:
   Number of electrons =    87
   Numerical integral  =    86.815097655930
   Relative error      =    -0.2125314300 %
 Inaccurate integrated density:
   Number of electrons =    87
   Numerical integral  =    86.926812730241
   Relative error      =    -0.0841232986 %
Recomputing EXC -5349.833843 -5854.938469 -5596.178904 
 Inaccurate integrated density:
   Number of electrons =    87
   Numerical integral  =    86.940218494286
   Relative error      =    -0.0687143744 %
Recomputing EXC -5565.754365 -5630.781483 -5596.178904 
 Inaccurate integrated density:
   Number of electrons =    87
   Numerical integral  =    86.942026104557
   Relative error      =    -0.0666366614 %
Recomputing EXC -5591.889269 -5600.899463 -5596.178904 
   48   -5591.8892692507      1.23E+01
 Inaccurate integrated density:
   Number of electrons =    87
   Numerical integral  =    86.815148138053
   Relative error      =    -0.2124734045 %
 Inaccurate integrated density:
   Number of electrons =    87
   Numerical integral  =    86.926601602024
   Relative error      =    -0.0843659747 %
Recomputing EXC -5345.135499 -5849.112444 -5591.889269 
 Inaccurate integrated density:
   Number of electrons =    87
   Numerical integral  =    86.939949091574
   Relative error      =    -0.0690240327 %
Recomputing EXC -5561.458284 -5626.183396 -5591.889269 
 Inaccurate integrated density:
   Number of electrons =    87
   Numerical integral  =    86.941743317689
   Relative error      =    -0.0669617038 %
Recomputing EXC -5587.607561 -5596.552329 -5591.889269 
   49   -5587.6075606880      1.22E+01
 Inaccurate integrated density:
   Number of electrons =    87
   Numerical integral  =    86.815201996676
   Relative error      =    -0.2124114981 %
 Inaccurate integrated density:
   Number of electrons =    87
   Numerical integral  =    86.926389827241
   Relative error      =    -0.0846093940 %
Recomputing EXC -5340.477981 -5843.372405 -5587.607561 
 Inaccurate integrated density:
   Number of electrons =    87
   Numerical integral  =    86.939682044319
   Relative error      =    -0.0693309835 %
Recomputing EXC -5557.169183 -5621.609583 -5587.607561 
 Inaccurate integrated density:
   Number of electrons =    87
   Numerical integral  =    86.941463574556
   Relative error      =    -0.0672832476 %
Recomputing EXC -5583.333215 -5592.216185 -5587.607561 
   50   -5583.3332150393      1.22E+01 Done RCA. Switching to DIIS
 Inaccurate integrated density:
   Number of electrons =    87
   Numerical integral  =    86.815258860288
   Relative error      =    -0.2123461376 %
   51   -2053.2191257538      3.78E+00
 Inaccurate integrated density:
   Number of electrons =    87
   Numerical integral  =    86.933610813935
   Relative error      =    -0.0763094093 %
   52    -693.7232022226      2.26E+00
 Inaccurate integrated density:
   Number of electrons =    87
   Numerical integral  =    86.908647156464
   Relative error      =    -0.1050032684 %
   53    -511.2725655688      9.45E+00
 Inaccurate integrated density:
   Number of electrons =    87
   Numerical integral  =    86.906032079288
   Relative error      =    -0.1080091043 %
   54    1515.2334375913      1.92E+01
 Inaccurate integrated density:
   Number of electrons =    87
   Numerical integral  =    86.900643108254
   Relative error      =    -0.1142033238 %
   55    -822.2999445341      7.44E-01
 Inaccurate integrated density:
   Number of electrons =    87
   Numerical integral  =    86.987439633168
   Relative error      =    -0.0144372033 %
   56   -1210.4153558461      7.75E-01
 Inaccurate integrated density:
   Number of electrons =    87
   Numerical integral  =    86.982435510162
   Relative error      =    -0.0201890688 %
   57    -615.1564645086      2.48E+00
 Inaccurate integrated density:
   Number of electrons =    87
   Numerical integral  =    86.982466097726
   Relative error      =    -0.0201539107 %
   58    -623.8673430071      2.28E+00
   59   -1080.2008962308      6.91E-01
   60   -1084.7373259952      7.52E-01
   61   -1081.2389071189      6.66E-01
 Inaccurate integrated density:
   Number of electrons =    87
   Numerical integral  =    86.963751527258
   Relative error      =    -0.0416649112 %
   62   -1200.1162355022      3.16E-01
 Inaccurate integrated density:
   Number of electrons =    87
   Numerical integral  =    86.962566444636
   Relative error      =    -0.0430270751 %
   63   -1173.2421484743      2.03E-01
 Inaccurate integrated density:
   Number of electrons =    87
   Numerical integral  =    86.959609535221
   Relative error      =    -0.0464258216 %
   64   -1483.5909467689      5.61E-01
 Inaccurate integrated density:
   Number of electrons =    87
   Numerical integral  =    86.961818953750
   Relative error      =    -0.0438862601 %
   65   -1081.8209517558      7.97E-02
 Inaccurate integrated density:
   Number of electrons =    87
   Numerical integral  =    86.943584570722
   Relative error      =    -0.0648453210 %
   66    -974.4323117836      1.40E-01
 Inaccurate integrated density:
   Number of electrons =    87
   Numerical integral  =    86.955989091051
   Relative error      =    -0.0505872517 %
   67   -1155.5688585072      3.28E-01
 Inaccurate integrated density:
   Number of electrons =    87
   Numerical integral  =    86.937333039641
   Relative error      =    -0.0720309889 %
   68   -1107.7969419160      1.80E-02
 Inaccurate integrated density:
   Number of electrons =    87
   Numerical integral  =    86.944574496558
   Relative error      =    -0.0637074752 %
   69   -1105.9809493588      1.45E-02
 Inaccurate integrated density:
   Number of electrons =    87
   Numerical integral  =    86.943904161960
   Relative error      =    -0.0644779748 %
   70   -1133.6602035104      5.43E-02
 Inaccurate integrated density:
   Number of electrons =    87
   Numerical integral  =    86.950444331898
   Relative error      =    -0.0569605380 %
   71   -1121.2514271336      4.91E-02
 Inaccurate integrated density:
   Number of electrons =    87
   Numerical integral  =    86.952221609467
   Relative error      =    -0.0549176903 %
   72   -1105.3920228787      7.37E-03
 Inaccurate integrated density:
   Number of electrons =    87
   Numerical integral  =    86.950246638723
   Relative error      =    -0.0571877716 %
   73   -1103.6497679997      5.32E-03
 Inaccurate integrated density:
   Number of electrons =    87
   Numerical integral  =    86.949300966093
   Relative error      =    -0.0582747516 %
   74   -1103.4997479791      4.20E-03
 Inaccurate integrated density:
   Number of electrons =    87
   Numerical integral  =    86.944369892168
   Relative error      =    -0.0639426527 %
   75   -1102.7324250405      4.60E-03
 Inaccurate integrated density:
   Number of electrons =    87
   Numerical integral  =    86.945684991668
   Relative error      =    -0.0624310441 %
   76   -1102.7566427923      4.32E-03
 Inaccurate integrated density:
   Number of electrons =    87
   Numerical integral  =    86.945359690524
   Relative error      =    -0.0628049534 %
   77   -1102.9267841959      4.02E-03
 Inaccurate integrated density:
   Number of electrons =    87
   Numerical integral  =    86.945242163982
   Relative error      =    -0.0629400414 %
   78   -1103.1878664430      3.61E-03
 Inaccurate integrated density:
   Number of electrons =    87
   Numerical integral  =    86.945422962665
   Relative error      =    -0.0627322268 %
   79   -1103.6003389613      3.58E-03
 Inaccurate integrated density:
   Number of electrons =    87
   Numerical integral  =    86.959400926263
   Relative error      =    -0.0466656020 %
   80   -1104.3783475190      8.99E-03
 Inaccurate integrated density:
   Number of electrons =    87
   Numerical integral  =    86.968647722550
   Relative error      =    -0.0360371005 %
   81   -1104.4697897979      8.90E-03
 Inaccurate integrated density:
   Number of electrons =    87
   Numerical integral  =    86.974379929488
   Relative error      =    -0.0294483569 %
   82   -1104.5592382936      9.33E-03
 Inaccurate integrated density:
   Number of electrons =    87
   Numerical integral  =    86.938372370262
   Relative error      =    -0.0708363560 %
   83   -1107.4966505616      1.40E-02
 Inaccurate integrated density:
   Number of electrons =    87
   Numerical integral  =    86.938597563537
   Relative error      =    -0.0705775132 %
   84   -1107.2527306574      1.03E-02
 Inaccurate integrated density:
   Number of electrons =    87
   Numerical integral  =    86.939486723008
   Relative error      =    -0.0695554908 %
   85   -1106.4232458803      7.35E-03
 Inaccurate integrated density:
   Number of electrons =    87
   Numerical integral  =    86.939528709124
   Relative error      =    -0.0695072309 %
   86   -1106.2531398712      7.29E-03
 Inaccurate integrated density:
   Number of electrons =    87
   Numerical integral  =    86.939994542468
   Relative error      =    -0.0689717903 %
   87   -1106.2270102513      7.05E-03
 Inaccurate integrated density:
   Number of electrons =    87
   Numerical integral  =    86.940850716941
   Relative error      =    -0.0679876817 %
   88   -1105.7152039580      6.75E-03
 Inaccurate integrated density:
   Number of electrons =    87
   Numerical integral  =    86.942663279135
   Relative error      =    -0.0659042769 %
   89   -1105.0548288666      4.89E-03
 Inaccurate integrated density:
   Number of electrons =    87
   Numerical integral  =    86.943375271528
   Relative error      =    -0.0650858948 %
   90   -1104.8871005882      4.68E-03
 Inaccurate integrated density:
   Number of electrons =    87
   Numerical integral  =    86.943353839759
   Relative error      =    -0.0651105290 %
   91   -1104.8684585365      4.63E-03
 Inaccurate integrated density:
   Number of electrons =    87
   Numerical integral  =    86.943730237559
   Relative error      =    -0.0646778879 %
   92   -1104.8791908608      4.82E-03
 Inaccurate integrated density:
   Number of electrons =    87
   Numerical integral  =    86.944931226327
   Relative error      =    -0.0632974410 %
   93   -1104.1937351464      3.40E-03
 Inaccurate integrated density:
   Number of electrons =    87
   Numerical integral  =    86.961079044765
   Relative error      =    -0.0447367302 %
   94   -1105.1050717971      6.28E-03
 Inaccurate integrated density:
   Number of electrons =    87
   Numerical integral  =    86.976330766848
   Relative error      =    -0.0272060151 %
   95   -1104.7955174947      7.35E-03
 Inaccurate integrated density:
   Number of electrons =    87
   Numerical integral  =    86.976500949300
   Relative error      =    -0.0270104031 %
   96   -1104.3348436525      4.39E-03
 Inaccurate integrated density:
   Number of electrons =    87
   Numerical integral  =    86.976433651363
   Relative error      =    -0.0270877571 %
   97   -1104.3319970960      4.34E-03
 Inaccurate integrated density:
   Number of electrons =    87
   Numerical integral  =    86.988754765190
   Relative error      =    -0.0129255573 %
   98   -1104.4099497143      4.47E-03
   99   -1104.5743358220      5.13E-03
  100   -1104.6070933179      4.81E-03
  101   -1104.6757210585      4.08E-03
  102   -1104.7696047710      2.72E-03
  103   -1104.8204763025      1.51E-03
  104   -1104.8436336639      1.29E-04
  105   -1104.8443098544      2.93E-05
  106   -1104.8444361053      1.67E-05
  107   -1104.8444814089      8.35E-06
  108   -1104.8444950829      3.52E-06
  109   -1104.8444995152      8.18E-07
  110   -1104.8444996104      3.16E-07
  111   -1104.8444996258      7.43E-08
  112   -1104.8444996326      2.64E-08
  113   -1104.8444996322      1.01E-08
  114   -1104.8444996355      2.99E-09 Convergence criterion met
 ---------------------------------------
 <S^2> = 0.7627
 SCF time:  CPU 94.06 s  wall 84.76 s
 SCF   energy in the final basis set = -1104.8444996355
 Total energy in the final basis set = -1104.8444996355
 
 --------------------------------------------------------------
             Orbital Energies (a.u.) and Symmetries
 --------------------------------------------------------------
 
 Alpha MOs, Unrestricted
 -- Occupied --                  
-88.750 -88.750 -10.065 -10.064 -10.056 -10.056 -10.049 -10.049
  1 B     1 A     2 A     2 B     3 B     3 A     4 B     4 A                  
-10.033 -10.033  -7.809  -7.809  -5.773  -5.773  -5.770  -5.770
  5 B     5 A     6 B     6 A     7 B     7 A     8 B     8 A                  
 -5.766  -5.766  -0.724  -0.702  -0.606  -0.582  -0.570  -0.536
  9 A     9 B    10 A    10 B    11 A    12 A    11 B    12 B                  
 -0.447  -0.416  -0.393  -0.368  -0.364  -0.314  -0.262  -0.254
 13 A    14 A    13 B    14 B    15 A    15 B    16 A    17 A                  
 -0.244  -0.241  -0.240  -0.208  -0.206  -0.198  -0.174  -0.128
 16 B    17 B    18 A    19 A    18 B    20 A    19 B    20 B                  
 -0.111  -0.100  -0.050   0.047
 21 B    21 A    22 A    22 B                                                  
 -- Virtual --                   
  0.093   0.097   0.109   0.115   0.124   0.146   0.149   0.149
 23 A    23 B    24 A    24 B    25 A    26 A    25 B    27 A                  
  0.152   0.164   0.165   0.175   0.175   0.178   0.188   0.197
 28 A    29 A    26 B    27 B    28 B    30 A    29 B    30 B                  
  0.206   0.211   0.214   0.216   0.217   0.228   0.228   0.233
 31 A    32 A    31 B    33 A    32 B    33 B    34 A    35 A                  
  0.235   0.236   0.240   0.249   0.256   0.266   0.266   0.272
 34 B    36 A    37 A    35 B    38 A    39 A    40 A    41 A                  
  0.272   0.278   0.281   0.286   0.291   0.310   0.310   0.315
 36 B    37 B    38 B    39 B    40 B    41 B    42 A    43 A                  
  0.317   0.321   0.323   0.325   0.339   0.352   0.359   0.380
 42 B    44 A    45 A    46 A    43 B    44 B    47 A    45 B                  
  0.392   0.400   0.405   0.430   0.433   0.434   0.441   0.451
 48 A    49 A    46 B    47 B    50 A    48 B    51 A    49 B                  
  0.454   0.479   0.481   0.499   0.518   0.536   0.583   0.586
 52 A    53 A    50 B    51 B    54 A    52 B    53 B    55 A                  
  0.611   0.636   0.688   0.707   0.711   0.713   0.741   0.746
 56 A    54 B    57 A    55 B    58 A    56 B    59 A    57 B                  
  0.765   0.795   0.805   0.813   0.829   0.830   0.835   0.856
 60 A    58 B    61 A    59 B    62 A    63 A    60 B    64 A                  
  0.863   0.870   0.876   0.886   0.907   0.927   0.937   0.960
 61 B    65 A    62 B    63 B    66 A    64 B    67 A    65 B                  
  0.971   0.987   1.001   1.031   1.073   1.075   1.095   1.106
 66 B    68 A    67 B    69 A    68 B    70 A    71 A    69 B                  
  1.115   1.122   1.125   1.126   1.153   1.158   1.168   1.173
 72 A    70 B    71 B    73 A    72 B    74 A    73 B    75 A                  
  1.180   1.232   1.234   1.261   1.271   1.291   1.313   1.338
 76 A    74 B    77 A    78 A    75 B    76 B    79 A    80 A                  
  1.363   1.367   1.394   1.424   1.498   1.502   1.505   1.511
 77 B    78 B    81 A    79 B    80 B    81 B    82 A    83 A                  
  1.527   1.528   1.621   1.657   1.699   1.722   1.752   1.793
 82 B    84 A    83 B    85 A    84 B    86 A    85 B    86 B                  
  1.843   1.856   1.967   1.984   2.029   2.058   2.078   2.087
 87 A    87 B    88 A    89 A    90 A    88 B    89 B    91 A                  
  2.143   2.149   2.161   2.166   2.212   2.245   2.257   2.279
 90 B    92 A    93 A    91 B    94 A    92 B    93 B    95 A                  
  2.297   2.319   2.393   2.422   2.433   2.441   2.508   2.516
 96 A    94 B    95 B    97 A    98 A    96 B    97 B    99 A                  
  2.562   2.599   2.627   2.638   2.653   2.670   2.698   2.701
 98 B   100 A    99 B   101 A   102 A   100 B   101 B   103 A                  
  2.719   2.728   2.749   2.836   2.852   2.878   2.907   2.967
104 A   105 A   102 B   103 B   104 B   106 A   107 A   105 B                  
  2.995   3.121   3.156   3.287   3.379   3.418   3.420   3.547
108 A   106 B   107 B   109 A   108 B   110 A   109 B   111 A                  
  3.590   3.854   3.903   4.099   4.187   4.396   4.453   4.478
110 B   112 A   111 B   113 A   112 B   114 A   115 A   113 B                  
  4.500   4.567   4.704   4.799   4.898
114 B   116 A   115 B   117 A   116 B                                          
 
 Beta MOs, Unrestricted
 -- Occupied --                  
-88.749 -88.749 -10.063 -10.062 -10.052 -10.052 -10.049 -10.049
  1 B     1 A     2 A     2 B     3 B     3 A     4 B     4 A                  
-10.031 -10.031  -7.809  -7.809  -5.773  -5.773  -5.770  -5.770
  5 B     5 A     6 B     6 A     7 B     7 A     8 B     8 A                  
 -5.765  -5.765  -0.720  -0.698  -0.601  -0.578  -0.567  -0.531
  9 A     9 B    10 A    10 B    11 A    12 A    11 B    12 B                  
 -0.440  -0.414  -0.390  -0.365  -0.362  -0.313  -0.260  -0.253
 13 A    14 A    13 B    14 B    15 A    15 B    16 A    17 A                  
 -0.243  -0.237  -0.230  -0.205  -0.199  -0.196  -0.172  -0.113
 16 B    18 A    17 B    18 B    19 A    20 A    19 B    20 B                  
 -0.100  -0.092  -0.031
 21 B    21 A    22 A                                                          
 -- Virtual --                   
  0.093   0.096   0.100   0.108   0.115   0.124   0.146   0.148
 23 A    22 B    23 B    24 A    24 B    25 A    26 A    25 B                  
  0.153   0.162   0.164   0.166   0.175   0.178   0.180   0.188
 27 A    28 A    29 A    26 B    27 B    30 A    28 B    29 B                  
  0.198   0.206   0.214   0.215   0.216   0.221   0.228   0.229
 30 B    31 A    32 A    31 B    33 A    32 B    33 B    34 A                  
  0.233   0.235   0.240   0.241   0.250   0.257   0.266   0.272
 35 A    34 B    36 A    37 A    35 B    38 A    39 A    36 B                  
  0.273   0.273   0.278   0.286   0.287   0.291   0.311   0.314
 40 A    41 A    37 B    38 B    39 B    40 B    41 B    42 A                  
  0.315   0.319   0.321   0.325   0.325   0.340   0.352   0.359
 43 A    42 B    44 A    45 A    46 A    43 B    44 B    47 A                  
  0.380   0.392   0.400   0.405   0.431   0.434   0.436   0.443
 45 B    48 A    49 A    46 B    47 B    48 B    50 A    51 A                  
  0.453   0.455   0.480   0.483   0.499   0.519   0.539   0.585
 49 B    52 A    53 A    50 B    51 B    54 A    52 B    53 B                  
  0.588   0.612   0.639   0.691   0.709   0.713   0.714   0.742
 55 A    56 A    54 B    57 A    55 B    58 A    56 B    59 A                  
  0.748   0.767   0.805   0.817   0.819   0.831   0.834   0.836
 57 B    60 A    58 B    61 A    59 B    62 A    63 A    60 B                  
  0.858   0.873   0.874   0.876   0.887   0.915   0.929   0.939
 64 A    65 A    61 B    62 B    63 B    66 A    64 B    67 A                  
  0.961   0.979   0.994   1.007   1.033   1.074   1.078   1.096
 65 B    66 B    68 A    67 B    69 A    68 B    70 A    71 A                  
  1.109   1.120   1.123   1.125   1.128   1.154   1.159   1.169
 69 B    72 A    70 B    71 B    73 A    72 B    74 A    73 B                  
  1.176   1.182   1.234   1.236   1.263   1.274   1.294   1.318
 75 A    76 A    74 B    77 A    78 A    75 B    76 B    79 A                  
  1.340   1.364   1.370   1.396   1.432   1.500   1.505   1.508
 80 A    77 B    78 B    81 A    79 B    80 B    81 B    82 A                  
  1.517   1.530   1.533   1.622   1.658   1.702   1.729   1.761
 83 A    84 A    82 B    83 B    85 A    84 B    86 A    85 B                  
  1.796   1.854   1.867   1.972   1.985   2.032   2.059   2.080
 86 B    87 A    87 B    88 A    89 A    90 A    88 B    89 B                  
  2.089   2.147   2.153   2.163   2.170   2.215   2.246   2.266
 91 A    90 B    92 A    93 A    91 B    94 A    92 B    93 B                  
  2.287   2.307   2.326   2.401   2.427   2.435   2.445   2.511
 95 A    96 A    94 B    95 B    97 A    98 A    96 B    97 B                  
  2.518   2.567   2.602   2.627   2.638   2.659   2.675   2.699
 99 A    98 B   100 A    99 B   101 A   102 A   100 B   101 B                  
  2.705   2.725   2.731   2.753   2.839   2.852   2.882   2.908
103 A   104 A   105 A   102 B   103 B   104 B   106 A   107 A                  
  2.970   2.997   3.124   3.158   3.288   3.380   3.418   3.421
105 B   108 A   106 B   107 B   109 A   108 B   110 A   109 B                  
  3.548   3.591   3.855   3.904   4.101   4.189   4.400   4.455
111 A   110 B   112 A   111 B   113 A   112 B   114 A   115 A                  
  4.483   4.502   4.573   4.709   4.802   4.901
113 B   114 B   116 A   115 B   117 A   116 B                                  
 --------------------------------------------------------------
 
          Ground-State Mulliken Net Atomic Charges

     Atom                 Charge (a.u.)    Spin (a.u.)
  --------------------------------------------------------
      1 S                    -0.356184       0.098387
      2 C                    -0.069203       0.249902
      3 C                    -0.485949      -0.079494
      4 C                     0.237443       0.257971
      5 C                    -0.124764      -0.005369
      6 H                     0.072876      -0.010496
      7 C                    -0.124764      -0.005369
      8 S                    -0.356184       0.098387
      9 C                     0.237443       0.257971
     10 C                    -0.069203       0.249902
     11 C                    -0.485949      -0.079494
     12 H                     0.069320       0.004139
     13 H                     0.156460      -0.015041
     14 H                     0.069320       0.004139
     15 H                     0.156460      -0.015041
     16 H                     0.072876      -0.010496
  --------------------------------------------------------
  Sum of atomic charges =    -1.000000
  Sum of spin   charges =     1.000000

 -----------------------------------------------------------------
                    Cartesian Multipole Moments
 -----------------------------------------------------------------
    Charge (ESU x 10^10)
                -4.8032
    Dipole Moment (Debye)
         X       0.0000      Y       0.0000      Z      -0.3745
       Tot       0.3745
    Quadrupole Moments (Debye-Ang)
        XX     -99.0231     XY      -0.0162     YY     -87.2594
        XZ       0.0000     YZ       0.0000     ZZ     -83.2637
    Octopole Moments (Debye-Ang^2)
       XXX       0.0000    XXY       0.0000    XYY       0.0000
       YYY      -0.0000    XXZ       9.3920    XYZ      -0.0209
       YYZ       4.8529    XZZ      -0.0000    YZZ       0.0000
       ZZZ       0.6163
    Hexadecapole Moments (Debye-Ang^3)
      XXXX   -2464.1196   XXXY      -0.3642   XXYY    -486.5250
      XYYY      -0.0373   YYYY    -140.9838   XXXZ      -0.0000
      XXYZ       0.0000   XYYZ      -0.0000   YYYZ      -0.0000
      XXZZ    -500.2019   XYZZ       0.0054   YYZZ    -157.5347
      XZZZ      -0.0000   YZZZ      -0.0000   ZZZZ    -678.1879
 -----------------------------------------------------------------
 Calculating analytic gradient of the SCF energy
 Gradient of SCF Energy
            1           2           3           4           5           6
    1  -0.0020674  -0.0001047   0.0008598   0.0002659  -0.0014206  -0.0000450
    2  -0.0000025   0.0000371  -0.0000019  -0.0000416   0.0000146   0.0000235
    3   0.0017439  -0.0013404   0.0007409   0.0011567  -0.0025919   0.0000439
            7           8           9          10          11          12
    1   0.0014206   0.0020674  -0.0002659   0.0001047  -0.0008598   0.0000074
    2  -0.0000146   0.0000025   0.0000416  -0.0000371   0.0000019   0.0000026
    3  -0.0025919   0.0017439   0.0011567  -0.0013404   0.0007409   0.0001085
           13          14          15          16
    1   0.0000505  -0.0000074  -0.0000505   0.0000450
    2  -0.0000171  -0.0000026   0.0000171  -0.0000235
    3   0.0001384   0.0001085   0.0001384   0.0000439
 Max gradient component =       2.592E-03
 RMS gradient           =       9.264E-04
 Gradient time:  CPU 1.88 s  wall 1.89 s
 Geometry Optimization Parameters
   NAtoms,    NIC,     NZ,  NCons,   NDum,   NFix, NCnnct, MaxDiis
       16     111       0       1       0       0       0       0


** CONSTRAINED OPTIMIZATION IN DELOCALIZED INTERNAL COORDINATES **
   Searching for a Minimum

   Optimization Cycle:   1

                       Coordinates (Angstroms)
     ATOM                X               Y               Z
      1  S         1.6238034351   -0.0001097396    1.1690959245
      2  C         3.1721440878    0.0004062199    0.3158221336
      3  C         2.9737344711    0.0000445391   -1.0523210626
      4  C         1.6191084393   -0.0001565276   -1.4488573308
      5  C         0.7041899065   -0.0000681393   -0.3700565709
      6  H         1.2926972557    0.0008036214   -2.4833909050
      7  C        -0.7041899065    0.0000681393   -0.3700565709
      8  S        -1.6238034351    0.0001097396    1.1690959245
      9  C        -1.6191084393    0.0001565276   -1.4488573308
     10  C        -3.1721440878   -0.0004062199    0.3158221336
     11  C        -2.9737344711   -0.0000445391   -1.0523210626
     12  H        -3.7985061097    0.0000904774   -1.7612041217
     13  H         4.0995318522   -0.0011128877    0.8715371552
     14  H         3.7985061097   -0.0000904774   -1.7612041217
     15  H        -4.0995318522    0.0011128877    0.8715371552
     16  H        -1.2926972557   -0.0008036214   -2.4833909050
   Point Group: c2    Number of degrees of freedom:    22


   Energy is  -1104.844499635

              Constraints and their Current Values
                                        Value     Constraint
   Dihedral:        4   5   7   9        0.000        0.000

 Attempting to Generate Delocalized Internal Coordinates

 21 Hessian modes will be used to form the next step
  Hessian Eigenvalues:
     0.045000    0.045000    0.045000    0.045000    0.045000    0.045000
     0.160000    0.160000    0.160000    0.221184    0.237470    0.250000
     0.264210    0.283931    0.350974    0.354198    0.358566    0.414224
     0.425056    0.442595    0.471396

 Minimum Search - Taking Simple RFO Step
 Searching for Lamda that Minimizes Along All modes
 Value Taken    Lamda =  -0.00051808
 Step Taken.  Stepsize is  0.045142

                             Maximum     Tolerance    Cnvgd?
         Gradient           0.010040      0.000300      NO
         Displacement       0.040468      0.001200      NO
         Energy change     *********      0.000001      NO


 New Cartesian Coordinates Obtained by Inverse Iteration

 Displacement from previous Coordinates is:  0.281772
 ----------------------------------------------------------------
             Standard Nuclear Orientation (Angstroms)
    I     Atom           X                Y                Z
 ----------------------------------------------------------------
    1      S       1.6609227598    -0.0000828809     1.1844121185
    2      C       3.1903780583     0.0003381750     0.2996738641
    3      C       2.9610147500     0.0000335221    -1.0643179165
    4      C       1.5986636292    -0.0001451793    -1.4307561587
    5      C       0.7056640548    -0.0000641470    -0.3327550532
    6      H       1.2506458995     0.0006302556    -2.4582674335
    7      C      -0.7056640548     0.0000641470    -0.3327550532
    8      S      -1.6609227598     0.0000828809     1.1844121185
    9      C      -1.5986636292     0.0001451793    -1.4307561587
   10      C      -3.1903780583    -0.0003381750     0.2996738641
   11      C      -2.9610147500    -0.0000335221    -1.0643179165
   12      H      -3.7695011115     0.0000861712    -1.7918914192
   13      H       4.1297579977    -0.0010317536     0.8345272208
   14      H       3.7695011115    -0.0000861712    -1.7918914192
   15      H      -4.1297579977     0.0010317536     0.8345272208
   16      H      -1.2506458995    -0.0006302556    -2.4582674335
 ----------------------------------------------------------------
 Molecular Point Group                 C2    NOp =  2
 Largest Abelian Subgroup              C2    NOp =  2
 Nuclear Repulsion Energy =   626.5631089647 hartrees
 There are       44 alpha and       43 beta electrons
 Applying Cartesian multipole field
    Component          Value
    ---------          -----
     (2,0,0)        1.00000E-11
     (0,2,0)        2.00000E-11
     (0,0,2)       -3.00000E-11
 Nucleus-field energy     =     0.0000000036 hartrees
 Requested basis set is 6-31++G(d,p)
 There are 76 shells and 234 basis functions
 A cutoff of  1.0D-12 yielded   2527 shell pairs
 There are     24869 function pairs
 Smallest overlap matrix eigenvalue = 4.74E-07
 Linear dependence detected in AO basis
 Number of orthogonalized atomic orbitals = 233
 Maximum deviation from orthogonality = 1.733E-10
 Guess MOs from SCF MO coefficient file
 Reading MOs from coefficient file
 Reading MOs from coefficient file
 An unrestricted hybrid HF-DFT SCF calculation will be
 performed using Relaxed Constraint Minimization + Pulay DIIS
 Exchange:     0.2000 Hartree-Fock + 0.0800 Slater + 0.7200 B88
 Correlation:  0.1900 VWN1RPA + 0.8100 LYP
 Using SG-1 standard quadrature grid
 SCF converges when DIIS error is below 1.0E-08
 Geometry optimization detected.  Setting ReadMinima to 0
 Setting SaveMinima to 0
 Inaccurate integrated density:
   Number of electrons =    87
   Numerical integral  =    86.970726141032
   Relative error      =    -0.0336481138 %
 Inaccurate integrated density:
   Number of electrons =    87
   Numerical integral  =    86.970726141032
   Relative error      =    -0.0336481138 %
 ---------------------------------------
  Cycle       Energy         DIIS Error
 ---------------------------------------
    1   -1104.8003733206      1.38E-03
    2   -1104.8433227653      4.10E-04 Done RCA. Switching to DIIS
    3   -1104.8362120015      1.01E-03
    4   -1104.8447751552      4.83E-05
    5   -1104.8447912810      1.48E-05
    6   -1104.8447925497      6.66E-06
    7   -1104.8447929319      1.50E-06
    8   -1104.8447929508      5.91E-07
    9   -1104.8447929539      1.68E-07
   10   -1104.8447929545      6.85E-08
   11   -1104.8447929548      2.38E-08
   12   -1104.8447929549      1.23E-08
   13   -1104.8447929549      1.34E-09 Convergence criterion met
 ---------------------------------------
 <S^2> = 0.7626
 SCF time:  CPU 9.24 s  wall 8.32 s
 SCF   energy in the final basis set = -1104.8447929549
 Total energy in the final basis set = -1104.8447929549
 
 --------------------------------------------------------------
             Orbital Energies (a.u.) and Symmetries
 --------------------------------------------------------------
 
 Alpha MOs, Unrestricted
 -- Occupied --                  
-88.751 -88.751 -10.065 -10.065 -10.056 -10.056 -10.049 -10.049
  1 B     1 A     2 A     2 B     3 B     3 A     4 B     4 A                  
-10.033 -10.033  -7.810  -7.810  -5.774  -5.774  -5.771  -5.771
  5 B     5 A     6 B     6 A     7 B     7 A     8 B     8 A                  
 -5.767  -5.767  -0.724  -0.702  -0.606  -0.582  -0.571  -0.536
  9 A     9 B    10 A    10 B    11 A    12 A    11 B    12 B                  
 -0.447  -0.416  -0.393  -0.368  -0.364  -0.315  -0.262  -0.254
 13 A    14 A    13 B    14 B    15 A    15 B    16 A    17 A                  
 -0.244  -0.241  -0.240  -0.209  -0.207  -0.197  -0.175  -0.128
 16 B    17 B    18 A    19 A    18 B    20 A    19 B    20 B                  
 -0.111  -0.100  -0.050   0.047
 21 B    21 A    22 A    22 B                                                  
 -- Virtual --                   
  0.093   0.097   0.109   0.115   0.125   0.147   0.149   0.149
 23 A    23 B    24 A    24 B    25 A    26 A    27 A    25 B                  
  0.150   0.164   0.165   0.175   0.175   0.178   0.188   0.197
 28 A    29 A    26 B    27 B    28 B    30 A    29 B    30 B                  
  0.206   0.210   0.213   0.216   0.216   0.227   0.228   0.234
 31 A    32 A    31 B    33 A    32 B    33 B    34 A    35 A                  
  0.234   0.237   0.240   0.249   0.256   0.265   0.266   0.270
 34 B    36 A    37 A    35 B    38 A    39 A    40 A    36 B                  
  0.272   0.278   0.282   0.285   0.292   0.308   0.310   0.315
 41 A    37 B    38 B    39 B    40 B    41 B    42 A    43 A                  
  0.316   0.321   0.323   0.325   0.339   0.352   0.358   0.382
 42 B    44 A    45 A    46 A    43 B    44 B    47 A    45 B                  
  0.391   0.401   0.405   0.428   0.434   0.434   0.441   0.452
 48 A    49 A    46 B    47 B    50 A    48 B    51 A    49 B                  
  0.452   0.478   0.482   0.498   0.518   0.536   0.583   0.584
 52 A    53 A    50 B    51 B    54 A    52 B    55 A    53 B                  
  0.609   0.637   0.686   0.705   0.710   0.711   0.743   0.744
 56 A    54 B    57 A    55 B    58 A    56 B    59 A    57 B                  
  0.766   0.795   0.805   0.813   0.826   0.827   0.834   0.858
 60 A    58 B    61 A    59 B    62 A    63 A    60 B    64 A                  
  0.863   0.870   0.875   0.886   0.909   0.929   0.937   0.957
 61 B    65 A    62 B    63 B    66 A    64 B    67 A    65 B                  
  0.970   0.987   0.999   1.031   1.073   1.077   1.094   1.106
 66 B    68 A    67 B    69 A    68 B    70 A    71 A    69 B                  
  1.117   1.123   1.126   1.127   1.155   1.162   1.171   1.172
 72 A    70 B    71 B    73 A    74 A    72 B    75 A    73 B                  
  1.178   1.232   1.232   1.258   1.270   1.292   1.312   1.338
 76 A    74 B    77 A    78 A    75 B    76 B    79 A    80 A                  
  1.361   1.366   1.392   1.424   1.498   1.502   1.505   1.511
 77 B    78 B    81 A    79 B    80 B    81 B    82 A    83 A                  
  1.527   1.527   1.617   1.655   1.699   1.718   1.750   1.795
 82 B    84 A    83 B    85 A    84 B    86 A    85 B    86 B                  
  1.844   1.856   1.965   1.987   2.029   2.058   2.078   2.087
 87 A    87 B    88 A    89 A    90 A    88 B    89 B    91 A                  
  2.144   2.150   2.157   2.161   2.212   2.243   2.258   2.282
 90 B    92 A    93 A    91 B    94 A    92 B    93 B    95 A                  
  2.297   2.317   2.391   2.420   2.436   2.443   2.508   2.516
 96 A    94 B    95 B    97 A    98 A    96 B    97 B    99 A                  
  2.563   2.599   2.626   2.641   2.651   2.670   2.698   2.698
 98 B   100 A    99 B   101 A   102 A   100 B   103 A   101 B                  
  2.716   2.728   2.750   2.835   2.848   2.875   2.906   2.971
104 A   105 A   102 B   103 B   104 B   106 A   107 A   105 B                  
  2.998   3.117   3.151   3.288   3.376   3.418   3.420   3.547
108 A   106 B   107 B   109 A   108 B   110 A   109 B   111 A                  
  3.589   3.854   3.903   4.099   4.185   4.397   4.453   4.476
110 B   112 A   111 B   113 A   112 B   114 A   115 A   113 B                  
  4.500   4.565   4.700   4.798   4.894
114 B   116 A   115 B   117 A   116 B                                          
 
 Beta MOs, Unrestricted
 -- Occupied --                  
-88.750 -88.750 -10.063 -10.063 -10.053 -10.053 -10.050 -10.050
  1 B     1 A     2 A     2 B     3 B     3 A     4 B     4 A                  
-10.031 -10.031  -7.809  -7.809  -5.774  -5.774  -5.770  -5.770
  5 B     5 A     6 B     6 A     7 B     7 A     8 B     8 A                  
 -5.765  -5.765  -0.720  -0.699  -0.600  -0.578  -0.568  -0.531
  9 A     9 B    10 A    10 B    11 A    12 A    11 B    12 B                  
 -0.440  -0.413  -0.390  -0.365  -0.362  -0.313  -0.260  -0.253
 13 A    14 A    13 B    14 B    15 A    15 B    16 A    17 A                  
 -0.242  -0.237  -0.230  -0.206  -0.200  -0.195  -0.173  -0.112
 16 B    18 A    17 B    18 B    19 A    20 A    19 B    20 B                  
 -0.100  -0.092  -0.031
 21 B    21 A    22 A                                                          
 -- Virtual --                   
  0.093   0.096   0.100   0.108   0.115   0.124   0.147   0.149
 23 A    22 B    23 B    24 A    24 B    25 A    26 A    25 B                  
  0.151   0.161   0.164   0.166   0.174   0.178   0.180   0.187
 27 A    28 A    29 A    26 B    27 B    30 A    28 B    29 B                  
  0.198   0.206   0.213   0.215   0.217   0.221   0.227   0.229
 30 B    31 A    32 A    31 B    33 A    32 B    33 B    34 A                  
  0.234   0.234   0.240   0.242   0.250   0.257   0.266   0.270
[...]
      4 C                     0.243099       0.251804
      5 C                    -0.129904      -0.002947
      6 H                     0.071097      -0.010495
      7 C                    -0.129904      -0.002947
      8 S                    -0.328586       0.101248
      9 C                     0.243099       0.251804
     10 C                    -0.083913       0.247175
     11 C                    -0.496232      -0.075817
     12 H                     0.069291       0.004150
     13 H                     0.155147      -0.015119
     14 H                     0.069291       0.004150
     15 H                     0.155147      -0.015119
     16 H                     0.071097      -0.010495
  --------------------------------------------------------
  Sum of atomic charges =    -1.000000
  Sum of spin   charges =     1.000000

 -----------------------------------------------------------------
                    Cartesian Multipole Moments
 -----------------------------------------------------------------
    Charge (ESU x 10^10)
                -4.8032
    Dipole Moment (Debye)
         X      -0.0000      Y      -0.0000      Z      -0.4500
       Tot       0.4500
    Quadrupole Moments (Debye-Ang)
        XX     -99.2196     XY      -0.0115     YY     -87.2736
        XZ       0.0000     YZ       0.0000     ZZ     -83.3657
    Octopole Moments (Debye-Ang^2)
       XXX      -0.0000    XXY       0.0000    XYY      -0.0000
       YYY       0.0000    XXZ       7.9954    XYZ      -0.0120
       YYZ       4.0282    XZZ      -0.0000    YZZ      -0.0000
       ZZZ      -2.5715
    Hexadecapole Moments (Debye-Ang^3)
      XXXX   -2480.3072   XXXY      -0.2456   XXYY    -489.6992
      XYYY      -0.0147   YYYY    -141.1424   XXXZ      -0.0000
      XXYZ       0.0000   XYYZ       0.0000   YYYZ       0.0000
      XXZZ    -503.8015   XYZZ       0.0022   YYZZ    -157.7236
      XZZZ      -0.0000   YZZZ       0.0000   ZZZZ    -680.8012
 -----------------------------------------------------------------
 Calculating analytic gradient of the SCF energy
 Gradient of SCF Energy
            1           2           3           4           5           6
    1   0.0001013  -0.0000425   0.0000666  -0.0000520  -0.0001400   0.0000058
    2  -0.0000006   0.0000219  -0.0000011  -0.0000209   0.0000058   0.0000110
    3   0.0000372   0.0000078  -0.0000030   0.0000442  -0.0000923   0.0000077
            7           8           9          10          11          12
    1   0.0001400  -0.0001013   0.0000520   0.0000425  -0.0000666   0.0000107
    2  -0.0000058   0.0000006   0.0000209  -0.0000219   0.0000011   0.0000002
    3  -0.0000923   0.0000372   0.0000442   0.0000078  -0.0000030  -0.0000011
           13          14          15          16
    1   0.0000164  -0.0000107  -0.0000164  -0.0000058
    2  -0.0000118  -0.0000002   0.0000118  -0.0000110
    3  -0.0000004  -0.0000011  -0.0000004   0.0000077
 Max gradient component =       1.400E-04
 RMS gradient           =       4.674E-05
 Gradient time:  CPU 1.91 s  wall 1.89 s
 Geometry Optimization Parameters
   NAtoms,    NIC,     NZ,  NCons,   NDum,   NFix, NCnnct, MaxDiis
       16     111       0       1       0       0       0       0

 Cartesian Hessian Update
 Hessian Updated using BFGS Update


** CONSTRAINED OPTIMIZATION IN DELOCALIZED INTERNAL COORDINATES **
   Searching for a Minimum

   Optimization Cycle:   4

                       Coordinates (Angstroms)
     ATOM                X               Y               Z
      1  S         1.6662328385   -0.0000265562    1.1870838383
      2  C         3.1911831377    0.0002315342    0.2956030308
      3  C         2.9552316097   -0.0000219036   -1.0677560698
      4  C         1.5916008201   -0.0001406202   -1.4271340305
      5  C         0.7053055629   -0.0000623791   -0.3220843822
      6  H         1.2385972950    0.0002958942   -2.4525253778
      7  C        -0.7053055629    0.0000623791   -0.3220843822
      8  S        -1.6662328385    0.0000265562    1.1870838383
      9  C        -1.5916008201    0.0001406202   -1.4271340305
     10  C        -3.1911831377   -0.0002315342    0.2956030308
     11  C        -2.9552316097    0.0000219036   -1.0677560698
     12  H        -3.7603770380    0.0001282452   -1.7990612412
     13  H         4.1327228925   -0.0007974885    0.8264994546
     14  H         3.7603770380   -0.0001282452   -1.7990612412
     15  H        -4.1327228925    0.0007974885    0.8264994546
     16  H        -1.2385972950   -0.0002958942   -2.4525253778
   Point Group: c2    Number of degrees of freedom:    22


   Energy is  -1104.844816571

              Constraints and their Current Values
                                        Value     Constraint
   Dihedral:        4   5   7   9        0.000        0.000
 Hessian Updated using BFGS Update

 21 Hessian modes will be used to form the next step
  Hessian Eigenvalues:
     0.044436    0.045000    0.045000    0.045000    0.045000    0.045000
     0.143280    0.159996    0.160432    0.166395    0.222585    0.245811
     0.270275    0.289471    0.351088    0.354664    0.359549    0.406298
     0.437612    0.462868    0.481715

 Minimum Search - Taking Simple RFO Step
 Searching for Lamda that Minimizes Along All modes
 Value Taken    Lamda =   0.00000000
 Step Taken.  Stepsize is  0.001190

                             Maximum     Tolerance    Cnvgd?
         Gradient           0.000135      0.000300     YES
         Displacement       0.000529      0.001200     YES
         Energy change     -0.000002      0.000001      NO

 Final energy is   -1104.84481657145     


 ******************************
 **  OPTIMIZATION CONVERGED  **
 ******************************

                       Coordinates (Angstroms)
     ATOM                X               Y               Z
      1  S         1.6662328385   -0.0000265562    1.1870838383
      2  C         3.1911831377    0.0002315342    0.2956030308
      3  C         2.9552316097   -0.0000219036   -1.0677560698
      4  C         1.5916008201   -0.0001406202   -1.4271340305
      5  C         0.7053055629   -0.0000623791   -0.3220843822
      6  H         1.2385972950    0.0002958942   -2.4525253778
      7  C        -0.7053055629    0.0000623791   -0.3220843822
      8  S        -1.6662328385    0.0000265562    1.1870838383
      9  C        -1.5916008201    0.0001406202   -1.4271340305
     10  C        -3.1911831377   -0.0002315342    0.2956030308
     11  C        -2.9552316097    0.0000219036   -1.0677560698
     12  H        -3.7603770380    0.0001282452   -1.7990612412
     13  H         4.1327228925   -0.0007974885    0.8264994546
     14  H         3.7603770380   -0.0001282452   -1.7990612412
     15  H        -4.1327228925    0.0007974885    0.8264994546
     16  H        -1.2385972950   -0.0002958942   -2.4525253778

Z-matrix Print:
$molecule
-1 2
S 
C  1 1.766412
H  2 1.080902 1 120.272659
C  2 1.383626 1 110.491700 3 -179.917623 0
H  4 1.087689 2 122.429830 1 179.987172 0
C  4 1.410192 2 114.583010 1 -0.012356 0
H  6 1.084453 4 123.760945 2 -179.959701 0
C  6 1.416564 4 113.966747 2 0.003727 0
C  8 1.410611 6 128.731047 4 -179.989357 0
C  9 1.416564 8 128.731047 6 -0.000000 0
H  10 1.084453 9 122.272297 8 -0.025317 0
C  10 1.410192 9 113.966747 8 -179.989357 0
H  12 1.087689 10 122.987160 9 -179.995798 0
C  12 1.383626 10 114.583010 9 0.003727 0
H  14 1.080902 12 129.235579 10 -179.920504 0
S  14 1.766412 12 110.491700 10 -0.012356 0
$end

 
 --------------------------------------------------------------
             Orbital Energies (a.u.) and Symmetries
 --------------------------------------------------------------
 
 Alpha MOs, Unrestricted
 -- Occupied --                  
-88.751 -88.751 -10.065 -10.064 -10.056 -10.056 -10.049 -10.049
  1 B     1 A     2 A     2 B     3 B     3 A     4 B     4 A                  
-10.033 -10.033  -7.810  -7.810  -5.774  -5.774  -5.771  -5.771
  5 B     5 A     6 B     6 A     7 B     7 A     8 B     8 A                  
 -5.767  -5.767  -0.724  -0.702  -0.606  -0.582  -0.571  -0.535
  9 A     9 B    10 A    10 B    11 A    12 A    11 B    12 B                  
 -0.447  -0.416  -0.393  -0.368  -0.364  -0.315  -0.262  -0.254
 13 A    14 A    13 B    14 B    15 A    15 B    16 A    17 A                  
 -0.243  -0.241  -0.240  -0.209  -0.208  -0.197  -0.176  -0.128
 16 B    17 B    18 A    19 A    18 B    20 A    19 B    20 B                  
 -0.111  -0.101  -0.050   0.047
 21 B    21 A    22 A    22 B                                                  
 -- Virtual --                   
  0.093   0.097   0.109   0.115   0.125   0.147   0.149   0.149
 23 A    23 B    24 A    24 B    25 A    26 A    27 A    25 B                  
  0.150   0.164   0.165   0.175   0.175   0.178   0.188   0.197
 28 A    29 A    26 B    27 B    28 B    30 A    29 B    30 B                  
  0.206   0.209   0.213   0.216   0.216   0.226   0.228   0.234
 31 A    32 A    31 B    33 A    32 B    33 B    34 A    35 A                  
  0.234   0.237   0.240   0.249   0.256   0.265   0.266   0.270
 34 B    36 A    37 A    35 B    38 A    39 A    40 A    36 B                  
  0.272   0.278   0.282   0.285   0.292   0.308   0.310   0.314
 41 A    37 B    38 B    39 B    40 B    41 B    42 A    43 A                  
  0.316   0.321   0.323   0.325   0.339   0.352   0.358   0.383
 42 B    44 A    45 A    46 A    43 B    44 B    47 A    45 B                  
  0.391   0.401   0.405   0.427   0.434   0.435   0.441   0.452
 48 A    49 A    46 B    47 B    50 A    48 B    51 A    52 A                  
  0.452   0.478   0.483   0.497   0.517   0.536   0.583   0.584
 49 B    53 A    50 B    51 B    54 A    52 B    55 A    53 B                  
  0.609   0.637   0.685   0.705   0.710   0.711   0.744   0.744
 56 A    54 B    57 A    55 B    58 A    56 B    59 A    57 B                  
  0.767   0.795   0.805   0.813   0.825   0.827   0.834   0.859
 60 A    58 B    61 A    59 B    62 A    63 A    60 B    64 A                  
  0.862   0.870   0.875   0.886   0.910   0.930   0.937   0.957
 61 B    65 A    62 B    63 B    66 A    64 B    67 A    65 B                  
  0.970   0.987   0.998   1.031   1.073   1.077   1.094   1.106
 66 B    68 A    67 B    69 A    68 B    70 A    71 A    69 B                  
  1.117   1.123   1.127   1.127   1.155   1.165   1.171   1.174
 72 A    70 B    71 B    73 A    74 A    72 B    75 A    73 B                  
  1.178   1.232   1.233   1.257   1.270   1.292   1.312   1.339
 76 A    77 A    74 B    78 A    75 B    76 B    79 A    80 A                  
  1.362   1.367   1.392   1.425   1.498   1.503   1.505   1.511
 77 B    78 B    81 A    79 B    80 B    81 B    82 A    83 A                  
  1.526   1.527   1.616   1.654   1.700   1.718   1.751   1.796
 84 A    82 B    83 B    85 A    84 B    86 A    85 B    86 B                  
  1.844   1.856   1.965   1.988   2.031   2.058   2.079   2.087
 87 A    87 B    88 A    89 A    90 A    88 B    89 B    91 A                  
  2.145   2.151   2.157   2.161   2.214   2.242   2.257   2.284
 90 B    92 A    93 A    91 B    94 A    92 B    93 B    95 A                  
  2.297   2.318   2.391   2.420   2.437   2.446   2.508   2.516
 96 A    94 B    95 B    97 A    98 A    96 B    97 B    99 A                  
  2.563   2.599   2.626   2.643   2.650   2.671   2.698   2.700
 98 B   100 A    99 B   101 A   102 A   100 B   103 A   101 B                  
  2.715   2.728   2.750   2.836   2.847   2.875   2.906   2.974
104 A   105 A   102 B   103 B   104 B   106 A   107 A   105 B                  
  2.998   3.115   3.149   3.288   3.376   3.418   3.420   3.548
108 A   106 B   107 B   109 A   108 B   110 A   109 B   111 A                  
  3.590   3.854   3.903   4.100   4.185   4.398   4.453   4.475
110 B   112 A   111 B   113 A   112 B   114 A   115 A   113 B                  
  4.500   4.566   4.699   4.798   4.894
114 B   116 A   115 B   117 A   116 B                                          
 
 Beta MOs, Unrestricted
 -- Occupied --                  
-88.750 -88.750 -10.063 -10.063 -10.052 -10.052 -10.050 -10.050
  1 B     1 A     2 A     2 B     3 B     3 A     4 B     4 A                  
-10.031 -10.031  -7.809  -7.809  -5.774  -5.774  -5.771  -5.771
  5 B     5 A     6 B     6 A     7 B     7 A     8 B     8 A                  
 -5.765  -5.765  -0.720  -0.699  -0.601  -0.578  -0.568  -0.531
  9 A     9 B    10 A    10 B    11 A    12 A    11 B    12 B                  
 -0.440  -0.413  -0.390  -0.365  -0.362  -0.313  -0.260  -0.253
 13 A    14 A    13 B    14 B    15 A    15 B    16 A    17 A                  
 -0.242  -0.237  -0.231  -0.206  -0.200  -0.195  -0.173  -0.112
 16 B    18 A    17 B    18 B    19 A    20 A    19 B    20 B                  
 -0.100  -0.092  -0.030
 21 B    21 A    22 A                                                          
 -- Virtual --                   
  0.093   0.096   0.100   0.108   0.115   0.124   0.148   0.149
 23 A    22 B    23 B    24 A    24 B    25 A    26 A    25 B                  
  0.151   0.162   0.164   0.166   0.175   0.178   0.180   0.187
 27 A    28 A    29 A    26 B    27 B    30 A    28 B    29 B                  
  0.198   0.206   0.212   0.215   0.217   0.221   0.226   0.229
 30 B    31 A    32 A    31 B    33 A    32 B    33 B    34 A                  
  0.234   0.234   0.240   0.242   0.250   0.257   0.266   0.270
 35 A    34 B    36 A    37 A    35 B    38 A    39 A    36 B                  
  0.271   0.273   0.278   0.286   0.286   0.292   0.309   0.313
 40 A    41 A    37 B    38 B    39 B    40 B    41 B    42 A                  
  0.314   0.318   0.320   0.325   0.325   0.340   0.352   0.358
 43 A    42 B    44 A    45 A    46 A    43 B    44 B    47 A                  
  0.383   0.392   0.401   0.405   0.429   0.435   0.437   0.442
 45 B    48 A    49 A    46 B    47 B    48 B    50 A    51 A                  
  0.453   0.454   0.479   0.485   0.498   0.518   0.539   0.584
 52 A    49 B    53 A    50 B    51 B    54 A    52 B    55 A                  
  0.586   0.610   0.640   0.689   0.706   0.711   0.713   0.745
 53 B    56 A    54 B    57 A    55 B    58 A    56 B    59 A                  
  0.746   0.769   0.805   0.816   0.820   0.827   0.832   0.835
 57 B    60 A    58 B    61 A    59 B    62 A    63 A    60 B                  
  0.860   0.872   0.873   0.875   0.887   0.917   0.932   0.939
 64 A    61 B    65 A    62 B    63 B    66 A    64 B    67 A                  
  0.958   0.977   0.995   1.004   1.033   1.074   1.079   1.094
 65 B    66 B    68 A    67 B    69 A    68 B    70 A    71 A                  
  1.109   1.122   1.123   1.128   1.128   1.156   1.165   1.174
 69 B    72 A    70 B    71 B    73 A    74 A    72 B    75 A                  
  1.175   1.180   1.234   1.235   1.260   1.273   1.296   1.316
 73 B    76 A    77 A    74 B    78 A    75 B    76 B    79 A                  
  1.341   1.363   1.369   1.395   1.433   1.501   1.506   1.509
 80 A    77 B    78 B    81 A    79 B    80 B    81 B    82 A                  
  1.516   1.528   1.534   1.617   1.655   1.703   1.725   1.759
 83 A    84 A    82 B    83 B    85 A    84 B    86 A    85 B                  
  1.798   1.855   1.867   1.970   1.989   2.034   2.059   2.080
 86 B    87 A    87 B    88 A    89 A    90 A    88 B    89 B                  
  2.089   2.149   2.155   2.160   2.165   2.217   2.243   2.266
 91 A    90 B    92 A    93 A    91 B    94 A    92 B    93 B                  
  2.292   2.307   2.325   2.398   2.425   2.439   2.450   2.510
 95 A    96 A    94 B    95 B    97 A    98 A    96 B    97 B                  
  2.518   2.568   2.602   2.626   2.643   2.656   2.676   2.701
 99 A    98 B   100 A    99 B   101 A   102 A   100 B   101 B                  
  2.702   2.722   2.731   2.754   2.839   2.847   2.880   2.907
103 A   104 A   105 A   102 B   103 B   104 B   106 A   107 A                  
  2.977   3.000   3.118   3.151   3.289   3.377   3.418   3.420
105 B   108 A   106 B   107 B   109 A   108 B   110 A   109 B                  
  3.549   3.591   3.855   3.905   4.102   4.187   4.403   4.455
111 A   110 B   112 A   111 B   113 A   112 B   114 A   115 A                  
  4.480   4.501   4.571   4.704   4.801   4.897
113 B   114 B   116 A   115 B   117 A   116 B                                  
 --------------------------------------------------------------
 
          Ground-State Mulliken Net Atomic Charges

     Atom                 Charge (a.u.)    Spin (a.u.)
  --------------------------------------------------------
      1 S                    -0.328586       0.101248
      2 C                    -0.083913       0.247175
      3 C                    -0.496232      -0.075817
      4 C                     0.243099       0.251804
      5 C                    -0.129904      -0.002947
      6 H                     0.071097      -0.010495
      7 C                    -0.129904      -0.002947
      8 S                    -0.328586       0.101248
      9 C                     0.243099       0.251804
     10 C                    -0.083913       0.247175
     11 C                    -0.496232      -0.075817
     12 H                     0.069291       0.004150
     13 H                     0.155147      -0.015119
     14 H                     0.069291       0.004150
     15 H                     0.155147      -0.015119
     16 H                     0.071097      -0.010495
  --------------------------------------------------------
  Sum of atomic charges =    -1.000000
  Sum of spin   charges =     1.000000

 -----------------------------------------------------------------
                    Cartesian Multipole Moments
 -----------------------------------------------------------------
    Charge (ESU x 10^10)
                -4.8032
    Dipole Moment (Debye)
         X      -0.0000      Y      -0.0000      Z      -0.4500
       Tot       0.4500
    Quadrupole Moments (Debye-Ang)
        XX     -99.2196     XY      -0.0115     YY     -87.2736
        XZ       0.0000     YZ       0.0000     ZZ     -83.3657
    Octopole Moments (Debye-Ang^2)
       XXX      -0.0000    XXY       0.0000    XYY      -0.0000
       YYY       0.0000    XXZ       7.9954    XYZ      -0.0120
       YYZ       4.0282    XZZ      -0.0000    YZZ      -0.0000
       ZZZ      -2.5715
    Hexadecapole Moments (Debye-Ang^3)
      XXXX   -2480.3072   XXXY      -0.2456   XXYY    -489.6992
      XYYY      -0.0147   YYYY    -141.1424   XXXZ      -0.0000
      XXYZ       0.0000   XYYZ       0.0000   YYYZ       0.0000
      XXZZ    -503.8015   XYZZ       0.0022   YYZZ    -157.7236
      XZZZ      -0.0000   YZZZ       0.0000   ZZZZ    -680.8012
 -----------------------------------------------------------------
Archival summary:
1\1\nid01047\OPT\ProcedureUnspecified\BasisUnspecified\286(1-,2)\TueSep622:48:112016TueSep622:48:112016\0\\#,OPT,ProcedureUnspecified,BasisUnspecified,\\-1,2\S\C,1,1.76641\H,2,1.0809,1,120.273\C,2,1.38363,1,110.492,3,-179.918,0\H,4,1.08769,2,122.43,1,179.987,0\C,4,1.41019,2,114.583,1,-0.012356,0\H,6,1.08445,4,123.761,2,-179.96,0\C,6,1.41656,4,113.967,2,0.0037269,0\C,8,1.41061,6,128.731,4,-179.989,0\C,9,1.41656,8,128.731,6,-0,0\H,10,1.08445,9,122.272,8,-0.0253171,0\C,10,1.41019,9,113.967,8,-179.989,0\H,12,1.08769,10,122.987,9,-179.996,0\C,12,1.38363,10,114.583,9,0.0037269,0\H,14,1.0809,12,129.236,10,-179.921,0\S,14,1.76641,12,110.492,10,-0.012356,0\\\@

 Total job time:  114.55s(wall), 126.34s(cpu) 
 Tue Sep  6 22:48:11 2016

        *************************************************************
        *                                                           *
        *  Thank you very much for using Q-Chem.  Have a nice day.  *
        *                                                           *
        *************************************************************


0 sent ACK to 0 
now end server 0 ... 
