srun -N 1 --ntasks-per-node 16 --nodelist nid01047 /global/project/projectdirs/jcesr/qchem/qc44/cnl_qc441/dist/exe/qcprog.cori.exe .pt_charged_dft_-60.0.in.24708.qcin.1 /dev/shm/eg_qchem/qchem24708/
Process 1 of 16 is on nid01047 - thread support 0
Process 2 of 16 is on nid01047 - thread support 0
Process 3 of 16 is on nid01047 - thread support 0
Process 4 of 16 is on nid01047 - thread support 0
Process 5 of 16 is on nid01047 - thread support 0
Process 6 of 16 is on nid01047 - thread support 0
Process 0 of 16 is on nid01047 - thread support 0
initial socket setup ...start
Process 15 of 16 is on nid01047 - thread support 0
initial socket setup ...done 
now start server 0 ... 
nid01047 10.128.4
Q-Chem Developer Version! Running on 10.128.4.*
                  Welcome to Q-Chem
     A Quantum Leap Into The Future Of Chemistry


 Q-Chem 4.4, Q-Chem, Inc., Pleasanton, CA (2016)

 Y. Shao,  Z. Gan,  E. Epifanovsky,  A. T. B. Gilbert,  M. Wormit,  
 J. Kussmann,  A. W. Lange,  A. Behn,  J. Deng,  X. Feng,  D. Ghosh,  
 M. Goldey,  P. R. Horn,  L. D. Jacobson,  I. Kaliman,  F.Rob,  
 R. Z. Khaliullin,  T. Kus,  A. Landau,  J. Liu,  E. I. Proynov,  Y. M. Rhee,  
 R. M. Richard,  M. A. Rohrdanz,  R. P. Steele,  E. J. Sundstrom,  
 H. L. Woodcock III,  P. M. Zimmerman,  D. Zuev,  B. Albrecht,  E. Alguire,  
 B. Austin,  S. A. Baeppler,  G. J. O. Beran,  Y. A. Bernard,  E. Berquist,  
 K. Brandhorst,  K. B. Bravaya,  S. T. Brown,  D. Casanova,  C.-M. Chang,  
 Y. Chen,  S. H. Chien,  K. D. Closser,  M. P. Coons,  D. L. Crittenden,  
 S. Dasgupta,  M. Diedenhofen,  R. A. DiStasio Jr.,  H. Do,  A. D. Dutoi,  
 R. G. Edgar,  P.-T. Fang,  S. Fatehi,  Q. Feng,  L. Fusti-Molnar,  
 A. Ghysels,  A. Golubeva-Zadorozhnaya,  J. Gomes,  A. Gunina,  
 M. W. D. Hanson-Heine,  P. H. P. Harbach,  A. W. Hauser,  E. G. Hohenstein,  
 Z. C. Holden,  K. Hui,  T.-C. Jagau,  H. Ji,  B. Kaduk,  K. Khistyaev,  
 Jaehoon Kim,  Jihan Kim,  R. A. King,  P. Klunzinger,  D. Kosenkov,  
 T. Kowalczyk,  C. M. Krauter,  A. Kunitsa,  K. U. Lao,  A. Laurent,  
 K. V. Lawler,  D. Lefrancois,  S. Lehtola,  S. V. Levchenko,  C. Y. Lin,  
 Y.-S. Lin,  F. Liu,  E. Livshits,  R. C. Lochan,  A. Luenser,  P. Manohar,  
 S. F. Manzer,  S.-P. Mao,  Y. Mao,  N. Mardirossian,  A. V. Marenich,  
 L. A. Martinez-Martinez,  S. A. Maurer,  N. J. Mayhall,  J.-M. Mewes,  
 A. F. Morrison,  K. Nanda,  C. M. Oana,  R. Olivares-Amaya,  D. P. O'Neill,  
 J. A. Parkhill,  T. M. Perrine,  R. Peverati,  P. A. Pieniazek,  F. Plasser,  
 A. Prociuk,  D. R. Rehn,  E. Rosta,  N. J. Russ,  N. Sergueev,  
 S. M. Sharada,  S. Sharma,  D. W. Small,  A. Sodt,  T. Stauch,  T. Stein,  
 D. Stuck,  Y.-C. Su,  A. J. W. Thom,  T. Tsuchimochi,  L. Vogt,  O. Vydrov,  
 T. Wang,  M. A. Watson,  J. Wenzel,  A. White,  C. F. Williams,  
 V. Vanovschi,  S. Yeganeh,  S. R. Yost,  Z.-Q. You,  I. Y. Zhang,  X. Zhang,  
 Y. Zhao,  B. R. Brooks,  G. K. L. Chan,  D. M. Chipman,  C. J. Cramer,  
 W. A. Goddard III,  M. S. Gordon,  W. J. Hehre,  A. Klamt,  
 H. F. Schaefer III,  M. W. Schmidt,  C. D. Sherrill,  D. G. Truhlar,  
 A. Warshel,  X. Xu,  A. Aspuru-Guzik,  R. Baer,  A. T. Bell,  N. A. Besley,  
 J.-D. Chai,  A. Dreuw,  B. D. Dunietz,  T. R. Furlani,  S. R. Gwaltney,  
 C.-P. Hsu,  Y. Jung,  J. Kong,  D. S. Lambrecht,  W. Liang,  C. Ochsenfeld,  
 V. A. Rassolov,  L. V. Slipchenko,  J. E. Subotnik,  T. Van Voorhis,  
 J. M. Herbert,  A. I. Krylov,  P. M. W. Gill,  M. Head-Gordon

 Contributors to earlier versions of Q-Chem not listed above: 
 R. D. Adamson,  J. Baker,  E. F. C. Byrd,  A. K. Chakraborty,  C.-L. Cheng,  
 H. Dachsel,  R. J. Doerksen,  G. Hawkins,  A. Heyden,  S. Hirata,  
 G. Kedziora,  F. J. Keil,  C. Kelley,  P. P. Korambath,  W. Kurlancheek,  
 A. M. Lee,  M. S. Lee,  D. Liotard,  I. Lotan,  P. E. Maslen,  N. Nair,  
 D. Neuhauser,  R. Olson,  B. Peters,  J. Ritchie,  N. E. Schultz,  
 N. Shenvi,  A. C. Simmonett,  K. S. Thanthiriwatte,  Q. Wu,  W. Zhang

 Please cite Q-Chem as follows:
 Y. Shao et al., Mol. Phys. 113, 184-215 (2015)
 DOI: 10.1080/00268976.2014.952696

 Q-Chem 4.4.1 for Intel X86 EM64T Linux

 Parts of Q-Chem use Armadillo 5.200.1 (Boston Tea Smuggler).
 http://arma.sourceforge.net/

 Q-Chem begins on Tue Sep  6 23:46:27 2016  

Host: nid01047
0

     Scratch files written to /dev/shm/eg_qchem/qchem24708.0//
 Parallel job on  16  processors

Checking the input file for inconsistencies... 	...done.

--------------------------------------------------------------
User input:
--------------------------------------------------------------
$comment
<SCF Fix Strategy>{
    "current_method_id": 0, 
    "methods": [
        "increase_iter", 
        "diis_gdm", 
        "gwh", 
        "rca", 
        "gdm", 
        "core+gdm", 
        "fon"
    ], 
    "version": 2.0
}</SCF Fix Strategy>
$end


$molecule
 -1  2
 S           1.83794975       -1.27576249       -0.14871336
 C           3.23937819       -0.19806434       -0.14823333
 C           2.83626844        1.12431397       -0.14890172
 C           1.43724334        1.31134696       -0.14931220
 C           0.69606563        0.10654716       -0.14908151
 H           0.95807640        2.28459073       -0.14860036
 C          -0.69610330       -0.10652413       -0.14907621
 S          -1.48867266       -1.00660703       -1.48187928
 C          -1.68212205        0.28844625        0.78508246
 C          -3.08384452       -0.81840227       -0.74333961
 C          -2.99119408       -0.11226632        0.44155290
 H          -3.86010524        0.11339822        1.05541963
 H           4.24016475       -0.60708034       -0.14954918
 H           3.54430111        1.94981573       -0.14910914
 H          -3.95832048       -1.23468887       -1.22382567
 H          -1.43787112        0.85012334        1.68044006
$end


$rem
         jobtype = opt
        exchange = b3lyp
           basis = 6-31++g**
  max_scf_cycles = 200
      mem_static = 100
       mem_total = 1500
   scf_algorithm = diis
       scf_guess = sad
$end


$opt
CONSTRAINT
tors 4 5 7 9 -60.0
ENDCONSTRAINT
$end

--------------------------------------------------------------
 Atom   8: ( -1.6742434294, -0.6526539674,  1.0125305432)
         ->( -1.6742433624, -0.6526540024,  1.0125305215)
 Atom  10: ( -3.1885121527, -0.1179802032,  0.2732407904)
         ->( -3.1885121393, -0.1179800724,  0.2732409537)
 Atom  11: ( -2.9421182298,  0.5506468143, -0.9114154004)
         ->( -2.9421182972,  0.5506466925, -0.9114153830)
 Atom   9: ( -1.5768298175,  0.6527423025, -1.2546598684)
         ->( -1.5768298906,  0.6527423297, -1.2546598815)
 Atom   7: ( -0.7024207765,  0.0498844938, -0.3203910159)
         ->( -0.7024207896,  0.0498846316, -0.3203910074)
 Atom  16: ( -1.2146525387,  1.1447844576, -2.1510565654)
         ->( -1.2146526502,  1.1447845781, -2.1510565411)
 Atom  14: (  3.7397060568, -0.9626717381, -1.5252985869)
         ->(  3.7397059163, -0.9626720653, -1.5252985535)
 Atom  15: ( -4.1331658253, -0.3282085974,  0.7552190605)
         ->( -4.1331658044, -0.3282088749,  0.7552190258)
 ----------------------------------------------------------------
             Standard Nuclear Orientation (Angstroms)
    I     Atom           X                Y                Z
 ----------------------------------------------------------------
    1      S       1.6742433624     0.6526540024     1.0125305215
    2      C       3.1885121393     0.1179800724     0.2732409537
    3      C       2.9421182972    -0.5506466925    -0.9114153830
    4      C       1.5768298906    -0.6527423297    -1.2546598815
    5      C       0.7024207896    -0.0498846316    -0.3203910074
    6      H       1.2146526502    -1.1447845781    -2.1510565411
    7      C      -0.7024207896     0.0498846316    -0.3203910074
    8      S      -1.6742433624    -0.6526540024     1.0125305215
    9      C      -1.5768298906     0.6527423297    -1.2546598815
   10      C      -3.1885121393    -0.1179800724     0.2732409537
   11      C      -2.9421182972     0.5506466925    -0.9114153830
   12      H      -3.7397059163     0.9626720653    -1.5252985535
   13      H       4.1331658044     0.3282088749     0.7552190258
   14      H       3.7397059163    -0.9626720653    -1.5252985535
   15      H      -4.1331658044    -0.3282088749     0.7552190258
   16      H      -1.2146526502     1.1447845781    -2.1510565411
 ----------------------------------------------------------------
 Molecular Point Group                 C2    NOp =  2
 Largest Abelian Subgroup              C2    NOp =  2
 Nuclear Repulsion Energy =   624.8117855970 hartrees
 There are       44 alpha and       43 beta electrons
 Requested basis set is 6-31++G(d,p)
 There are 76 shells and 234 basis functions

 Total QAlloc Memory Limit   1500 MB
 Mega-Array Size        98 MB
 MEM_STATIC part       100 MB
 A cutoff of  1.0D-11 yielded   2483 shell pairs
 There are     24507 function pairs
 
 -------------------------------------------------------
 OpenMP Integral Computing Module                       
 Release: version 1.0, May 2013, Q-Chem Inc. Pittsburgh 
 -------------------------------------------------------
 Integral Job Info:
 Integral job number is                      11
 Integral operator is                         1
 short-range coefficients                     0
 long-range coefficients              100000000
 Omega coefficients                           0
 if combine SR and LR in K                    0
 Integral screening is                        0
 Integral computing path is                   2
 max size of driver memory is            800000
 size of driver memory is                593474
 size of scratch memory is             15166112
 max col of scratch BK array               1296
 max len of scratch array in speh3          155
 max len of scratch index in speh4           18
 max int batch size is                      520
 min int batch size is                       52
 fixed nKL is                                52
 max L of basis functions is                  2
 order of int derivative is                   0
 number of shells is                         76
 number of basis is                         234
 number of cartesian basis is               234
 number of contracted shell pairs          2483
 number of primitive shell pairs           8009
 maxK2 (contraction) of shell pair           36
 max number of K2 of shell pair               1
 max number of CS2 of shell pair            256
 max number of PS2 of shell pair           1500
 mem total for path MDJ                   51378
 -------------------------------------------------------
 Smallest overlap matrix eigenvalue = 9.50E-07

 Q-Chem warning in module /project/projectdirs/jcesr/qchem/qc44/cnl_qc441/compile/cori/qc_src/stvman/mkSTV.C, line 257:

 Overlap eigenvalue is smaller than square root of threshold

 Linear dependence detected in AO basis
 Number of orthogonalized atomic orbitals = 233
 Maximum deviation from orthogonality = 3.769E-11

 Scale SEOQF with 1.000000e-01/1.000000e-01/1.000000e-01

 Standard Electronic Orientation quadrupole field applied
 Nucleus-field energy     =     0.0000000084 hartrees
 Guess from superposition of atomic densities
 Warning:  Energy on first SCF cycle will be non-variational
 An unrestricted hybrid HF-DFT SCF calculation will be
 performed using Pulay DIIS extrapolation
 Exchange:     0.2000 Hartree-Fock + 0.0800 Slater + 0.7200 B88
 Correlation:  0.1900 VWN1RPA + 0.8100 LYP
 Using SG-1 standard quadrature grid
 SCF converges when DIIS error is below 1.0E-08
 Inaccurate integrated density:
   Number of electrons =    87
   Numerical integral  =    85.999920730580
   Relative error      =    -1.1495164016 %
 ---------------------------------------
  Cycle       Energy         DIIS Error
 ---------------------------------------
    1   -1106.9758965810      4.28E-02
    2   -1114.0923627316      6.83E-02
    3   -1218.3462276434      5.50E-01
    4   -1129.3911377550      1.03E-01
    5   -1101.8370715528      1.13E-02
    6   -1101.7340231267      1.71E-02
    7   -1101.1737289230      1.30E-02
    8   -1132.0183674517      1.81E-01
    9   -1116.0653060231      6.57E-02
   10   -1157.6226534521      3.12E-01
   11   -1144.9909427431      2.41E-01
   12   -1141.1318328812      2.12E-01
   13   -1131.6456767341      2.08E-01
   14   -1116.8504229452      8.87E-02
   15   -1107.6299586074      4.44E-02
   16   -1109.5124595262      4.75E-02
   17   -1100.8946121800      6.36E-02
   18   -1093.4383074765      1.55E-01
   19   -1089.8508746447      1.83E-01
   20    -624.8463118973      5.22E+00
   21   -1034.9051589536      7.12E-01
   22   -1089.2152912029      1.43E-01
   23   -1073.2449812359      2.43E-01
   24   -1063.3510063474      3.24E-01
   25   -1097.7189827569      3.81E-02
   26   -1100.8541964731      1.26E-02
   27   -1101.5648690497      1.76E-02
   28   -1101.6640671682      8.50E-03
   29   -1107.2396857452      1.96E-02
   30   -1102.3055913721      4.88E-03
   31   -1107.4137905231      2.44E-02
   32   -1112.2902513872      2.19E-01
   33   -1104.9570873726      2.65E-02
   34   -1104.2637824764      9.39E-03
   35   -1104.3853389957      5.16E-03
   36   -1104.4835493107      4.16E-03
   37   -1104.6710640989      3.02E-03
   38   -1104.7439729001      2.78E-03
   39   -1104.7927812371      1.78E-03
   40   -1104.8120933535      1.24E-03
   41   -1104.8233503637      6.88E-04
   42   -1104.8270827651      3.55E-04
   43   -1104.8281561793      1.72E-04
   44   -1104.8285081380      4.11E-05
   45   -1104.8285422816      1.99E-05
   46   -1104.8285515812      5.45E-06
   47   -1104.8285441431      1.21E-06
   48   -1104.8285502373      6.44E-07
   49   -1104.8285507902      3.18E-07
   50   -1104.8285495689      1.76E-07
   51   -1104.8285502996      3.17E-07
   52   -1104.8285499691      2.11E-07
   53   -1104.8285507584      5.66E-08
   54   -1104.8285537911      1.04E-07
   55   -1104.8285529377      5.08E-08
   56   -1104.8285520347      1.76E-07
   57   -1104.8285525497      2.00E-07
   58   -1104.8285530461      1.64E-07
   59   -1104.8285530278      1.23E-07
   60   -1104.8285530002      1.24E-07
   61   -1104.8285532906      1.01E-07
   62   -1104.8285537729      6.12E-08
   63   -1104.8285533201      6.07E-08
   64   -1104.8285529565      6.54E-08
   65   -1104.8285526553      7.16E-08
   66   -1104.8285527293      7.96E-08
   67   -1104.8285532449      1.31E-07
   68   -1104.8285526365      7.16E-08
   69   -1104.8285529540      1.30E-07
   70   -1104.8285533124      1.22E-07
   71   -1104.8285516790      6.38E-08
   72   -1104.8285510230      3.95E-08
   73   -1104.8285526914      1.63E-07
   74   -1104.8285494918      8.74E-08
   75   -1104.8285483987      4.64E-08
   76   -1104.8285495040      8.54E-08
   77   -1104.8285500408      1.06E-07
   78   -1104.8285505839      1.03E-07
   79   -1104.8285505335      6.79E-08
   80   -1104.8285499883      5.90E-08
   81   -1104.8285509773      1.16E-07
   82   -1104.8285498860      4.57E-08
   83   -1104.8285496916      6.53E-08
   84   -1104.8285512768      8.47E-08
   85   -1104.8285514858      4.03E-08
   86   -1104.8285539719      1.58E-07
   87   -1104.8285533334      2.56E-07
   88   -1104.8285527840      1.77E-07
   89   -1104.8285512285      2.05E-07
   90   -1104.8285512873      1.46E-07
   91   -1104.8285505690      6.19E-08
   92   -1104.8285508824      4.42E-08
   93   -1104.8285509170      3.62E-08
   94   -1104.8285505768      6.87E-08
   95   -1104.8285506093      6.10E-08
   96   -1104.8285505717      5.18E-08
   97   -1104.8285497104      5.92E-08
   98   -1104.8285497738      6.63E-08
   99   -1104.8285513110      1.60E-07
  100   -1104.8285519776      2.22E-07
  101   -1104.8285517801      2.40E-07
  102   -1104.8285496022      1.22E-07
  103   -1104.8285507259      1.07E-07
  104   -1104.8285486123      1.06E-07
  105   -1104.8285493587      1.25E-07
  106   -1104.8285497043      1.25E-07
  107   -1104.8285499397      1.50E-07
  108   -1104.8285503066      1.01E-07
  109   -1104.8285508994      7.16E-08
  110   -1104.8285500796      6.78E-08
  111   -1104.8285507450      2.65E-08
  112   -1104.8285509207      2.89E-08
  113   -1104.8285503818      4.43E-08
  114   -1104.8285509645      4.07E-08
  115   -1104.8285510996      1.45E-07
  116   -1104.8285513581      1.00E-07
  117   -1104.8285524213      2.00E-07
  118   -1104.8285520213      2.78E-07
  119   -1104.8285497222      4.20E-08
  120   -1104.8285532585      4.97E-07
  121   -1104.8285516594      3.54E-07
  122   -1104.8285529554      3.47E-07
  123   -1104.8285517967      2.02E-07
  124   -1104.8285515001      2.33E-07
  125   -1104.8285512090      2.13E-07
  126   -1104.8285509705      2.11E-07
  127   -1104.8285502867      1.55E-07
  128   -1104.8285504369      1.79E-07
  129   -1104.8285504098      1.02E-07
  130   -1104.8285503622      1.06E-07
  131   -1104.8285507532      3.63E-07
  132   -1104.8285507573      4.09E-07
  133   -1104.8285501333      1.59E-07
  134   -1104.8285504829      7.55E-08
  135   -1104.8285503548      8.75E-08
  136   -1104.8285497606      3.76E-08
  137   -1104.8285505941      7.12E-08
  138   -1104.8285503805      2.14E-07
  139   -1104.8285502107      2.30E-07
  140   -1104.8285502758      3.02E-07
  141   -1104.8285502004      1.69E-07
  142   -1104.8285498608      1.93E-07
  143   -1104.8285496886      1.08E-07
  144   -1104.8285499826      1.02E-07
  145   -1104.8285498789      1.45E-07
  146   -1104.8285498296      1.54E-07
  147   -1104.8285485644      5.27E-07
  148   -1104.8285492593      3.07E-07
  149   -1104.8285489677      4.05E-07
  150   -1104.8285492056      3.18E-07
  151   -1104.8285494136      2.53E-07
  152   -1104.8285493699      2.81E-07
  153   -1104.8285497648      2.48E-07
  154   -1104.8285497883      2.79E-07
  155   -1104.8285495423      2.91E-07
  156   -1104.8285498705      2.32E-07
  157   -1104.8285498569      2.29E-07
  158   -1104.8285495307      2.23E-07
  159   -1104.8285493715      2.13E-07
  160   -1104.8285492835      1.76E-07
  161   -1104.8285493772      6.78E-08
  162   -1104.8285496053      4.57E-08
  163   -1104.8285499208      2.19E-07
  164   -1104.8285497030      3.21E-08
  165   -1104.8285491156      6.25E-08
  166   -1104.8285494762      2.65E-08
  167   -1104.8285497617      2.13E-08
  168   -1104.8285498850      2.61E-08
  169   -1104.8285498778      3.02E-08
  170   -1104.8285498832      2.94E-08
  171   -1104.8285498541      3.12E-08
  172   -1104.8285498526      3.11E-08
  173   -1104.8285498505      3.13E-08
  174   -1104.8285498482      3.12E-08
  175   -1104.8285498139      3.26E-08
  176   -1104.8285500729      2.28E-08
  177   -1104.8285505614      6.91E-09 Convergence criterion met
 ---------------------------------------
 <S^2> = 0.7602
 SCF time:  CPU 83.93 s  wall 72.53 s
 SCF   energy in the final basis set = -1104.8285505614
 Total energy in the final basis set = -1104.8285505614
 
 --------------------------------------------------------------
             Orbital Energies (a.u.) and Symmetries
 --------------------------------------------------------------
 
 Alpha MOs, Unrestricted
 -- Occupied --                  
-88.748 -88.748 -10.060 -10.060 -10.057 -10.057 -10.048 -10.048
  1 A     1 B     2 A     2 B     3 B     3 A     4 A     4 B                  
-10.037 -10.037  -7.807  -7.807  -5.771  -5.771  -5.768  -5.768
  5 B     5 A     6 B     6 A     7 B     7 A     8 B     8 A                  
 -5.765  -5.765  -0.722  -0.701  -0.605  -0.578  -0.573  -0.536
  9 B     9 A    10 A    10 B    11 A    12 A    11 B    12 B                  
 -0.446  -0.409  -0.399  -0.371  -0.361  -0.315  -0.259  -0.252
 13 A    14 A    13 B    14 B    15 A    15 B    16 A    16 B                  
 -0.252  -0.242  -0.235  -0.209  -0.208  -0.190  -0.184  -0.107
 17 A    17 B    18 A    19 A    18 B    20 A    19 B    21 A                  
 -0.103  -0.102  -0.064   0.061
 20 B    21 B    22 A    22 B                                                  
 -- Virtual --                   
  0.093   0.097   0.110   0.113   0.119   0.126   0.136   0.150
 23 A    23 B    24 A    24 B    25 A    26 A    25 B    27 A                  
  0.155   0.155   0.165   0.176   0.177   0.180   0.184   0.188
 26 B    28 A    27 B    28 B    29 A    30 A    29 B    31 A                  
  0.197   0.202   0.213   0.213   0.216   0.219   0.228   0.229
 30 B    32 A    33 A    31 B    32 B    34 A    35 A    33 B                  
  0.232   0.236   0.241   0.242   0.247   0.254   0.261   0.266
 34 B    36 A    35 B    37 A    38 A    36 B    37 B    39 A                  
  0.272   0.279   0.280   0.289   0.293   0.295   0.301   0.306
 38 B    40 A    39 B    41 A    42 A    40 B    41 B    43 A                  
  0.313   0.327   0.333   0.340   0.341   0.345   0.357   0.362
 42 B    43 B    44 A    45 A    44 B    46 A    45 B    46 B                  
  0.387   0.390   0.394   0.395   0.407   0.435   0.445   0.452
 47 B    47 A    48 A    48 B    49 A    50 A    49 B    50 B                  
  0.457   0.464   0.485   0.490   0.512   0.544   0.563   0.603
 51 A    52 A    53 A    51 B    52 B    54 A    53 B    55 A                  
  0.614   0.652   0.669   0.671   0.700   0.716   0.717   0.750
 56 A    54 B    55 B    57 A    56 B    58 A    57 B    59 A                  
  0.757   0.789   0.804   0.806   0.822   0.825   0.845   0.851
 58 B    60 A    61 A    59 B    60 B    62 A    63 A    61 B                  
  0.870   0.874   0.900   0.909   0.910   0.921   0.924   0.953
 64 A    62 B    63 B    64 B    65 A    66 A    65 B    67 A                  
  0.969   0.986   1.000   1.042   1.051   1.098   1.101   1.104
 66 B    68 A    67 B    69 A    68 B    69 B    70 A    70 B                  
  1.109   1.113   1.117   1.126   1.133   1.138   1.158   1.180
 71 A    72 A    71 B    72 B    73 A    73 B    74 A    74 B                  
  1.200   1.206   1.235   1.249   1.250   1.260   1.273   1.316
 75 A    75 B    76 A    76 B    77 A    78 A    77 B    78 B                  
  1.329   1.349   1.379   1.429   1.480   1.507   1.509   1.515
 79 A    80 A    79 B    81 A    80 B    82 A    81 B    83 A                  
  1.520   1.545   1.604   1.633   1.663   1.690   1.738   1.843
 82 B    84 A    83 B    84 B    85 A    86 A    85 B    87 A                  
  1.843   1.939   1.987   2.002   2.043   2.054   2.061   2.075
 86 B    87 B    88 A    89 A    88 B    90 A    89 B    91 A                  
  2.095   2.097   2.170   2.171   2.211   2.213   2.275   2.298
 92 A    90 B    91 B    93 A    92 B    94 A    95 A    93 B                  
  2.322   2.354   2.356   2.398   2.408   2.471   2.514   2.518
 94 B    95 B    96 A    96 B    97 A    98 A    99 A    97 B                  
  2.579   2.595   2.616   2.623   2.637   2.666   2.673   2.691
 98 B   100 A    99 B   101 A   100 B   102 A   101 B   103 A                  
  2.738   2.738   2.775   2.794   2.844   2.859   2.934   2.952
102 B   104 A   105 A   103 B   104 B   106 A   105 B   107 A                  
  3.016   3.032   3.119   3.300   3.349   3.417   3.420   3.557
108 A   106 B   107 B   109 A   108 B   109 B   110 A   111 A                  
  3.578   3.866   3.888   4.119   4.142   4.444   4.452   4.467
110 B   112 A   111 B   113 A   112 B   114 A   113 B   115 A                  
  4.477   4.590   4.677   4.812   4.874
114 B   116 A   115 B   117 A   116 B                                          
 
 Beta MOs, Unrestricted
 -- Occupied --                  
-88.748 -88.748 -10.058 -10.058 -10.054 -10.054 -10.048 -10.048
  1 A     1 B     2 A     2 B     3 B     3 A     4 A     4 B                  
-10.035 -10.035  -7.807  -7.807  -5.771  -5.771  -5.768  -5.768
  5 B     5 A     6 B     6 A     7 B     7 A     8 B     8 A                  
 -5.763  -5.763  -0.718  -0.698  -0.599  -0.574  -0.569  -0.531
  9 B     9 A    10 A    10 B    11 A    12 A    11 B    12 B                  
 -0.440  -0.406  -0.396  -0.368  -0.360  -0.313  -0.257  -0.250
 13 A    14 A    13 B    14 B    15 A    15 B    16 A    17 A                  
 -0.249  -0.235  -0.232  -0.203  -0.201  -0.187  -0.180  -0.099
 16 B    17 B    18 A    18 B    19 A    20 A    19 B    21 A                  
 -0.095  -0.085  -0.048
 20 B    21 B    22 A                                                          
 -- Virtual --                   
  0.093   0.096   0.109   0.112   0.113   0.123   0.135   0.136
 23 A    22 B    24 A    23 B    24 B    25 A    26 A    25 B                  
  0.150   0.154   0.158   0.166   0.177   0.177   0.182   0.187
 27 A    26 B    28 A    27 B    29 A    28 B    30 A    29 B                  
  0.190   0.198   0.202   0.213   0.214   0.217   0.219   0.227
 31 A    30 B    32 A    33 A    31 B    32 B    34 A    35 A                  
  0.230   0.234   0.237   0.242   0.245   0.247   0.255   0.262
 33 B    34 B    36 A    35 B    37 A    38 A    36 B    37 B                  
  0.268   0.273   0.279   0.281   0.289   0.294   0.296   0.302
 39 A    38 B    40 A    39 B    41 A    42 A    40 B    41 B                  
  0.311   0.313   0.327   0.333   0.341   0.343   0.345   0.357
 43 A    42 B    43 B    44 A    45 A    44 B    46 A    45 B                  
  0.363   0.387   0.390   0.395   0.397   0.408   0.436   0.447
 46 B    47 B    47 A    48 A    48 B    49 A    50 A    49 B                  
  0.454   0.460   0.465   0.486   0.490   0.514   0.545   0.565
 50 B    51 A    52 A    53 A    51 B    52 B    54 A    53 B                  
  0.605   0.616   0.655   0.671   0.673   0.703   0.718   0.720
 55 A    56 A    54 B    55 B    57 A    56 B    58 A    57 B                  
  0.752   0.759   0.792   0.809   0.813   0.829   0.832   0.849
 59 A    58 B    60 A    59 B    61 A    62 A    60 B    63 A                  
  0.855   0.873   0.877   0.902   0.913   0.915   0.925   0.926
 61 B    64 A    62 B    63 B    65 A    64 B    66 A    65 B                  
  0.954   0.975   0.993   1.005   1.044   1.053   1.100   1.103
 67 A    66 B    68 A    67 B    69 A    68 B    69 B    70 A                  
  1.106   1.112   1.115   1.120   1.127   1.134   1.140   1.161
 70 B    71 A    72 A    71 B    72 B    73 A    73 B    74 A                  
  1.182   1.201   1.210   1.238   1.252   1.253   1.262   1.276
 74 B    75 A    75 B    76 A    77 A    76 B    78 A    77 B                  
  1.317   1.332   1.352   1.382   1.432   1.483   1.512   1.514
 78 B    79 A    80 A    79 B    81 A    80 B    82 A    81 B                  
  1.518   1.523   1.548   1.606   1.635   1.665   1.696   1.743
 83 A    82 B    84 A    83 B    84 B    85 A    86 A    85 B                  
  1.853   1.853   1.948   1.990   2.004   2.045   2.058   2.063
 87 A    86 B    87 B    88 A    89 A    88 B    90 A    89 B                  
  2.079   2.097   2.102   2.174   2.174   2.212   2.218   2.281
 91 A    92 A    90 B    93 A    91 B    92 B    94 A    95 A                  
  2.307   2.326   2.360   2.364   2.402   2.412   2.475   2.516
 93 B    94 B    95 B    96 A    96 B    97 A    98 A    99 A                  
  2.520   2.583   2.598   2.619   2.626   2.639   2.667   2.677
 97 B    98 B   100 A    99 B   101 A   100 B   102 A   101 B                  
  2.696   2.740   2.742   2.779   2.795   2.846   2.862   2.937
103 A   104 A   102 B   105 A   103 B   104 B   106 A   105 B                  
  2.955   3.018   3.033   3.121   3.301   3.350   3.417   3.420
107 A   108 A   106 B   107 B   109 A   108 B   109 B   110 A                  
  3.558   3.579   3.867   3.889   4.121   4.144   4.449   4.456
111 A   110 B   112 A   111 B   113 A   112 B   114 A   113 B                  
  4.468   4.480   4.595   4.682   4.815   4.877
115 A   114 B   116 A   115 B   117 A   116 B                                  
 --------------------------------------------------------------
 
          Ground-State Mulliken Net Atomic Charges

     Atom                 Charge (a.u.)    Spin (a.u.)
  --------------------------------------------------------
      1 S                    -0.196537       0.140026
      2 C                    -0.092770       0.216707
      3 C                    -0.337063      -0.057892
      4 C                     0.133869       0.181310
      5 C                    -0.316180       0.025631
      6 H                     0.092159       0.001234
      7 C                    -0.316180       0.025631
      8 S                    -0.196537       0.140026
      9 C                     0.133869       0.181310
     10 C                    -0.092770       0.216707
     11 C                    -0.337063      -0.057892
     12 H                     0.073670       0.002940
     13 H                     0.142852      -0.009956
     14 H                     0.073670       0.002940
     15 H                     0.142852      -0.009956
     16 H                     0.092159       0.001234
  --------------------------------------------------------
  Sum of atomic charges =    -1.000000
  Sum of spin   charges =     1.000000

 -----------------------------------------------------------------
                    Cartesian Multipole Moments
 -----------------------------------------------------------------
    Charge (ESU x 10^10)
                -4.8032
    Dipole Moment (Debye)
         X      -0.0000      Y      -0.0000      Z      -0.5051
       Tot       0.5051
    Quadrupole Moments (Debye-Ang)
        XX     -99.6891     XY      -0.6801     YY     -86.6933
        XZ      -0.0000     YZ       0.0000     ZZ     -84.2232
    Octopole Moments (Debye-Ang^2)
       XXX      -0.0000    XXY       0.0000    XYY       0.0000
       YYY      -0.0000    XXZ       8.2529    XYZ       6.0658
       YYZ       1.5412    XZZ      -0.0000    YZZ      -0.0000
       ZZZ       0.7373
    Hexadecapole Moments (Debye-Ang^3)
      XXXX   -2481.5925   XXXY       3.4239   XXYY    -495.4122
      XYYY      12.7581   YYYY    -311.3408   XXXZ      -0.0000
      XXYZ       0.0000   XYYZ      -0.0000   YYYZ       0.0000
      XXZZ    -505.1378   XYZZ      -5.1271   YYZZ    -137.4792
      XZZZ       0.0000   YZZZ       0.0000   ZZZZ    -568.2580
 -----------------------------------------------------------------
 Calculating analytic gradient of the SCF energy
 Gradient of SCF Energy
            1           2           3           4           5           6
    1  -0.0067167   0.0020998  -0.0021498   0.0026131  -0.0116255   0.0011591
    2   0.0018071  -0.0014499  -0.0033023  -0.0081686   0.0050061   0.0015509
    3  -0.0031962  -0.0032121   0.0044656  -0.0015226   0.0057303  -0.0011380
            7           8           9          10          11          12
    1   0.0116255   0.0067167  -0.0026131  -0.0020998   0.0021498   0.0000774
    2  -0.0050061  -0.0018071   0.0081686   0.0014499   0.0033023  -0.0004296
    3   0.0057303  -0.0031962  -0.0015226  -0.0032121   0.0044656  -0.0001039
           13          14          15          16
    1  -0.0002490  -0.0000774   0.0002490  -0.0011591
    2   0.0028663   0.0004296  -0.0028663  -0.0015509
    3  -0.0010230  -0.0001039  -0.0010230  -0.0011380
 Max gradient component =       1.163E-02
 RMS gradient           =       4.054E-03
 Gradient time:  CPU 1.75 s  wall 1.77 s
 Geometry Optimization Parameters
   NAtoms,    NIC,     NZ,  NCons,   NDum,   NFix, NCnnct, MaxDiis
       16     111       0       1       0       0       0       0


** CONSTRAINED OPTIMIZATION IN DELOCALIZED INTERNAL COORDINATES **
   Searching for a Minimum

   Optimization Cycle:   1

                       Coordinates (Angstroms)
     ATOM                X               Y               Z
      1  S         1.6742433624    0.6526540024    1.0125305215
      2  C         3.1885121393    0.1179800724    0.2732409537
      3  C         2.9421182972   -0.5506466925   -0.9114153830
      4  C         1.5768298906   -0.6527423297   -1.2546598815
      5  C         0.7024207896   -0.0498846316   -0.3203910074
      6  H         1.2146526502   -1.1447845781   -2.1510565411
      7  C        -0.7024207896    0.0498846316   -0.3203910074
      8  S        -1.6742433624   -0.6526540024    1.0125305215
      9  C        -1.5768298906    0.6527423297   -1.2546598815
     10  C        -3.1885121393   -0.1179800724    0.2732409537
     11  C        -2.9421182972    0.5506466925   -0.9114153830
     12  H        -3.7397059163    0.9626720653   -1.5252985535
     13  H         4.1331658044    0.3282088749    0.7552190258
     14  H         3.7397059163   -0.9626720653   -1.5252985535
     15  H        -4.1331658044   -0.3282088749    0.7552190258
     16  H        -1.2146526502    1.1447845781   -2.1510565411
   Point Group: c2    Number of degrees of freedom:    22


   Energy is  -1104.828550561

              Constraints and their Current Values
                                        Value     Constraint
   Dihedral:        4   5   7   9      -60.000      -60.000

 Attempting to Generate Delocalized Internal Coordinates

 21 Hessian modes will be used to form the next step
  Hessian Eigenvalues:
     0.045000    0.045000    0.045000    0.045000    0.045000    0.045000
     0.160000    0.160000    0.160000    0.221184    0.237470    0.250000
     0.264210    0.283931    0.350974    0.354198    0.358566    0.414224
     0.425056    0.442595    0.471396

 Minimum Search - Taking Simple RFO Step
 Searching for Lamda that Minimizes Along All modes
 Value Taken    Lamda =  -0.00434016
 Step Taken.  Stepsize is  0.249579

                             Maximum     Tolerance    Cnvgd?
         Gradient           0.012380      0.000300      NO
         Displacement       0.199361      0.001200      NO
         Energy change     *********      0.000001      NO


 New Cartesian Coordinates Obtained by Inverse Iteration

 Displacement from previous Coordinates is:  0.440611
 ----------------------------------------------------------------
             Standard Nuclear Orientation (Angstroms)
    I     Atom           X                Y                Z
 ----------------------------------------------------------------
    1      S       1.6995479602     0.6176226220     1.0425319681
    2      C       3.2063793051     0.0932755075     0.2891618313
    3      C       2.9560131499    -0.5053075381    -0.9333289055
    4      C       1.5859908671    -0.6018946760    -1.2662400602
    5      C       0.7124970281    -0.0257955952    -0.3237994403
    6      H       1.2137588128    -1.0838979439    -2.1642366720
    7      C      -0.7124970281     0.0257955952    -0.3237994403
    8      S      -1.6995479602    -0.6176226220     1.0425319681
    9      C      -1.5859908671     0.6018946760    -1.2662400602
   10      C      -3.2063793051    -0.0932755075     0.2891618313
   11      C      -2.9560131499     0.5053075381    -0.9333289055
   12      H      -3.7484684583     0.9108166436    -1.5585160994
   13      H       4.1517934683     0.2415447437     0.7925965124
   14      H       3.7484684583    -0.9108166436    -1.5585160994
   15      H      -4.1517934683    -0.2415447437     0.7925965124
   16      H      -1.2137588128     1.0838979439    -2.1642366720
 ----------------------------------------------------------------
 Molecular Point Group                 C2    NOp =  2
 Largest Abelian Subgroup              C2    NOp =  2
 Nuclear Repulsion Energy =   622.7387948379 hartrees
 There are       44 alpha and       43 beta electrons
 Applying Cartesian multipole field
    Component          Value
    ---------          -----
     (2,0,0)        1.00000E-11
     (0,2,0)        2.00000E-11
     (0,0,2)       -3.00000E-11
 Nucleus-field energy     =     0.0000000080 hartrees
 Requested basis set is 6-31++G(d,p)
 There are 76 shells and 234 basis functions
 A cutoff of  1.0D-11 yielded   2483 shell pairs
 There are     24507 function pairs
 Smallest overlap matrix eigenvalue = 1.20E-06

 Q-Chem warning in module /project/projectdirs/jcesr/qchem/qc44/cnl_qc441/compile/cori/qc_src/stvman/mkSTV.C, line 257:

 Overlap eigenvalue is smaller than square root of threshold

 No. of orbitals has changed due to linear dependencies.  Generating new SCF guess.
 Guess from superposition of atomic densities
 Warning:  Energy on first SCF cycle will be non-variational
 An unrestricted hybrid HF-DFT SCF calculation will be
 performed using Pulay DIIS extrapolation
 Exchange:     0.2000 Hartree-Fock + 0.0800 Slater + 0.7200 B88
 Correlation:  0.1900 VWN1RPA + 0.8100 LYP
 Using SG-1 standard quadrature grid
 SCF converges when DIIS error is below 1.0E-08
 Geometry optimization detected.  Setting ReadMinima to 0
 Setting SaveMinima to 0
 Inaccurate integrated density:
   Number of electrons =    87
   Numerical integral  =    85.999961196692
   Relative error      =    -1.1494698889 %
 ---------------------------------------
  Cycle       Energy         DIIS Error
 ---------------------------------------
    1   -1106.9432676319      4.25E-02
    2   -1104.5838458782      5.40E-03
    3   -1104.0918092246      9.19E-03
    4   -1104.8145225898      1.30E-03
    5   -1104.8213219532      1.12E-03
    6   -1104.8313123960      1.68E-04
    7   -1104.8315731170      8.28E-05
    8   -1104.8316432776      2.38E-05
    9   -1104.8316574526      1.14E-05
   10   -1104.8316630674      4.91E-06
   11   -1104.8316656383      2.51E-06
   12   -1104.8316677546      1.38E-06
   13   -1104.8316684127      5.13E-07
   14   -1104.8316684831      3.28E-07
   15   -1104.8316684915      1.32E-07
   16   -1104.8316684928      5.09E-08
   17   -1104.8316684936      2.75E-08
   18   -1104.8316684941      1.69E-08
   19   -1104.8316684939      7.77E-09 Convergence criterion met
 ---------------------------------------
 <S^2> = 0.7607
 SCF time:  CPU 12.57 s  wall 11.26 s
 SCF   energy in the final basis set = -1104.8316684939
 Total energy in the final basis set = -1104.8316684939
 
 --------------------------------------------------------------
             Orbital Energies (a.u.) and Symmetries
 --------------------------------------------------------------
 
 Alpha MOs, Unrestricted
 -- Occupied --                  
-88.749 -88.749 -10.063 -10.063 -10.058 -10.058 -10.048 -10.048
  1 B     1 A     2 A     2 B     3 B     3 A     4 B     4 A                  
-10.037 -10.037  -7.808  -7.808  -5.772  -5.772  -5.769  -5.769
  5 B     5 A     6 B     6 A     7 B     7 A     8 B     8 A                  
 -5.765  -5.765  -0.721  -0.702  -0.603  -0.578  -0.572  -0.537
  9 B     9 A    10 A    10 B    11 A    12 A    11 B    12 B                  
 -0.445  -0.408  -0.399  -0.370  -0.361  -0.316  -0.260  -0.252
 13 A    14 A    13 B    14 B    15 A    15 B    16 A    16 B                  
 -0.252  -0.240  -0.235  -0.210  -0.209  -0.189  -0.182  -0.106
 17 A    17 B    18 A    18 B    19 A    20 A    19 B    21 A                  
 -0.105  -0.102  -0.064   0.059
 20 B    21 B    22 A    22 B                                                  
 -- Virtual --                   
  0.093   0.096   0.109   0.113   0.121   0.127   0.137   0.150
 23 A    23 B    24 A    24 B    25 A    26 A    25 B    27 A                  
  0.153   0.154   0.165   0.175   0.177   0.178   0.182   0.189
 28 A    26 B    27 B    28 B    29 A    30 A    29 B    31 A                  
  0.193   0.204   0.210   0.213   0.214   0.220   0.228   0.228
 30 B    32 A    31 B    32 B    33 A    34 A    35 A    33 B                  
  0.230   0.234   0.242   0.242   0.248   0.255   0.262   0.262
 34 B    36 A    35 B    37 A    38 A    36 B    39 A    37 B                  
  0.273   0.276   0.278   0.288   0.293   0.294   0.297   0.302
 38 B    40 A    39 B    40 B    41 A    42 A    41 B    43 A                  
  0.306   0.324   0.330   0.337   0.337   0.345   0.351   0.360
 42 B    43 B    44 A    45 A    44 B    46 A    45 B    46 B                  
  0.372   0.391   0.393   0.394   0.407   0.436   0.445   0.449
 47 B    48 B    47 A    48 A    49 A    50 A    49 B    50 B                  
  0.458   0.458   0.463   0.486   0.493   0.511   0.544   0.580
 51 A    51 B    52 A    53 A    52 B    53 B    54 A    54 B                  
  0.601   0.616   0.649   0.668   0.671   0.707   0.714   0.716
 55 A    56 A    55 B    56 B    57 A    57 B    58 B    58 A                  
  0.753   0.758   0.782   0.805   0.807   0.821   0.824   0.845
 59 A    59 B    60 A    61 A    60 B    61 B    62 A    63 A                  
  0.853   0.870   0.874   0.895   0.905   0.905   0.916   0.929
 62 B    64 A    63 B    64 B    65 B    65 A    66 A    66 B                  
  0.953   0.967   0.983   0.998   1.043   1.049   1.100   1.100
 67 A    67 B    68 A    68 B    69 A    69 B    70 B    70 A                  
  1.105   1.110   1.113   1.121   1.133   1.140   1.155   1.162
 71 B    71 A    72 A    72 B    73 A    73 B    74 A    74 B                  
  1.181   1.196   1.209   1.233   1.250   1.250   1.261   1.268
 75 B    75 A    76 B    76 A    77 A    77 B    78 A    78 B                  
  1.326   1.346   1.367   1.395   1.428   1.476   1.504   1.509
 79 A    80 A    79 B    80 B    81 A    81 B    82 A    82 B                  
  1.521   1.522   1.548   1.594   1.628   1.657   1.690   1.739
 83 B    83 A    84 A    84 B    85 B    85 A    86 A    86 B                  
  1.843   1.843   1.913   1.976   2.014   2.047   2.050   2.060
 87 B    87 A    88 B    88 A    89 A    89 B    90 A    90 B                  
  2.082   2.092   2.101   2.163   2.169   2.204   2.222   2.270
 91 A    92 A    91 B    93 A    92 B    93 B    94 A    95 A                  
  2.297   2.328   2.342   2.356   2.397   2.397   2.470   2.514
 94 B    95 B    96 A    96 B    97 B    97 A    98 A    99 A                  
  2.519   2.579   2.598   2.609   2.628   2.636   2.668   2.669
 98 B    99 B   100 A   101 A   100 B   101 B   102 B   102 A                  
  2.689   2.735   2.743   2.773   2.798   2.838   2.861   2.930
103 A   104 A   103 B   105 A   104 B   105 B   106 A   106 B                  
  2.946   3.019   3.029   3.111   3.299   3.346   3.416   3.418
107 A   108 A   107 B   108 B   109 A   109 B   110 B   110 A                  
  3.555   3.575   3.863   3.886   4.114   4.141   4.441   4.465
111 A   111 B   112 A   112 B   113 A   113 B   114 A   115 A                  
  4.480   4.487   4.584   4.683   4.810   4.867
114 B   115 B   116 A   116 B   117 A   117 B                                  
 
 Beta MOs, Unrestricted
 -- Occupied --                  
-88.748 -88.748 -10.061 -10.061 -10.054 -10.054 -10.049 -10.049
  1 B     1 A     2 A     2 B     3 B     3 A     4 B     4 A                  
-10.035 -10.035  -7.807  -7.807  -5.771  -5.771  -5.768  -5.768
  5 B     5 A     6 B     6 A     7 B     7 A     8 B     8 A                  
 -5.763  -5.763  -0.717  -0.698  -0.597  -0.574  -0.569  -0.533
  9 B     9 A    10 A    10 B    11 A    12 A    11 B    12 B                  
 -0.438  -0.406  -0.396  -0.368  -0.360  -0.314  -0.258  -0.250
 13 A    14 A    13 B    14 B    15 A    15 B    16 A    17 A                  
 -0.249  -0.233  -0.232  -0.205  -0.201  -0.186  -0.179  -0.098
 16 B    17 B    18 A    18 B    19 A    20 A    19 B    21 A                  
 -0.095  -0.089  -0.048
 20 B    21 B    22 A                                                          
 -- Virtual --                   
  0.093   0.095   0.109   0.111   0.113   0.123   0.137   0.137
 23 A    22 B    24 A    23 B    24 B    25 A    25 B    26 A                  
  0.150   0.154   0.157   0.166   0.176   0.177   0.180   0.186
 27 A    26 B    28 A    27 B    28 B    29 A    30 A    29 B                  
  0.192   0.194   0.203   0.211   0.214   0.214   0.220   0.228
 31 A    30 B    32 A    31 B    32 B    33 A    34 A    35 A                  
  0.229   0.232   0.235   0.243   0.245   0.248   0.256   0.263
 33 B    34 B    36 A    35 B    37 A    38 A    36 B    37 B                  
  0.264   0.274   0.277   0.279   0.289   0.293   0.295   0.298
 39 A    38 B    40 A    39 B    40 B    41 A    42 A    41 B                  
  0.308   0.308   0.324   0.331   0.337   0.339   0.345   0.351
 42 B    43 A    43 B    44 A    45 A    44 B    46 A    45 B                  
  0.360   0.372   0.392   0.393   0.395   0.407   0.437   0.447
 46 B    47 B    48 B    47 A    48 A    49 A    50 A    49 B                  
  0.450   0.460   0.460   0.464   0.486   0.493   0.513   0.545
 50 B    51 B    51 A    52 A    53 A    52 B    53 B    54 A                  
  0.581   0.603   0.618   0.651   0.670   0.673   0.709   0.717
 54 B    55 A    56 A    55 B    56 B    57 A    57 B    58 B                  
  0.719   0.755   0.760   0.784   0.810   0.814   0.828   0.832
 58 A    59 A    59 B    60 A    60 B    61 A    62 A    61 B                  
  0.848   0.856   0.873   0.876   0.897   0.909   0.910   0.920
 63 A    62 B    64 A    63 B    64 B    65 A    65 B    66 A                  
  0.932   0.954   0.973   0.990   1.004   1.044   1.051   1.102
 66 B    67 A    67 B    68 A    68 B    69 A    69 B    70 B                  
  1.103   1.107   1.112   1.115   1.122   1.134   1.143   1.158
 70 A    71 B    71 A    72 A    72 B    73 A    73 B    74 A                  
  1.163   1.183   1.197   1.213   1.236   1.252   1.254   1.263
 74 B    75 B    75 A    76 B    76 A    77 A    77 B    78 A                  
  1.272   1.329   1.349   1.370   1.396   1.431   1.479   1.510
 78 B    79 A    80 A    79 B    80 B    81 A    81 B    82 A                  
  1.514   1.524   1.525   1.551   1.596   1.631   1.659   1.695
 82 B    83 A    83 B    84 A    84 B    85 B    85 A    86 A                  
  1.744   1.853   1.853   1.922   1.979   2.015   2.049   2.055
 86 B    87 B    87 A    88 B    88 A    89 A    89 B    90 A                  
  2.062   2.086   2.094   2.106   2.166   2.173   2.205   2.227
 90 B    91 A    92 A    91 B    93 A    92 B    93 B    94 A                  
  2.277   2.305   2.332   2.351   2.362   2.401   2.401   2.474
 95 A    94 B    95 B    96 A    96 B    97 B    97 A    98 A                  
  2.516   2.520   2.583   2.601   2.612   2.630   2.638   2.670
 99 A    98 B    99 B   100 A   101 A   100 B   101 B   102 A                  
  2.672   2.694   2.737   2.747   2.777   2.800   2.841   2.865
102 B   103 A   104 A   103 B   105 A   104 B   105 B   106 A                  
  2.933   2.948   3.021   3.031   3.112   3.299   3.347   3.416
106 B   107 A   108 A   107 B   108 B   109 A   109 B   110 B                  
  3.419   3.556   3.576   3.864   3.887   4.117   4.143   4.446
110 A   111 A   111 B   112 A   112 B   113 A   113 B   114 A                  
  4.467   4.482   4.491   4.589   4.688   4.812   4.869
115 A   114 B   115 B   116 A   116 B   117 A   117 B                          
 --------------------------------------------------------------
 
          Ground-State Mulliken Net Atomic Charges

     Atom                 Charge (a.u.)    Spin (a.u.)
  --------------------------------------------------------
      1 S                    -0.193209       0.133935
      2 C                    -0.154201       0.225924
      3 C                    -0.385579      -0.054289
      4 C                     0.097269       0.172426
      5 C                    -0.169979       0.029202
      6 H                     0.097494      -0.000894
      7 C                    -0.169986       0.029202
      8 S                    -0.193204       0.133932
      9 C                     0.097262       0.172433
     10 C                    -0.154205       0.225925
     11 C                    -0.385570      -0.054297
     12 H                     0.070707       0.002568
     13 H                     0.137505      -0.008875
     14 H                     0.070707       0.002568
     15 H                     0.137499      -0.008869
     16 H                     0.097489      -0.000889
  --------------------------------------------------------
  Sum of atomic charges =    -1.000000
  Sum of spin   charges =     1.000000

 -----------------------------------------------------------------
                    Cartesian Multipole Moments
 -----------------------------------------------------------------
    Charge (ESU x 10^10)
                -4.8032
    Dipole Moment (Debye)
         X       0.0000      Y      -0.0000      Z      -0.5167
       Tot       0.5167
    Quadrupole Moments (Debye-Ang)
        XX    -100.0621     XY      -1.4303     YY     -86.5166
        XZ       0.0001     YZ       0.0001     ZZ     -84.2977
    Octopole Moments (Debye-Ang^2)
       XXX       0.0006    XXY       0.0004    XYY       0.0003
       YYY      -0.0004    XXZ       8.3955    XYZ       5.5882
       YYZ       0.6600    XZZ      -0.0000    YZZ      -0.0002
       ZZZ      -0.9449
    Hexadecapole Moments (Debye-Ang^3)
      XXXX   -2517.7678   XXXY     -10.8451   XXYY    -500.9070
      XYYY       9.1033   YYYY    -286.6115   XXXZ       0.0002
      XXYZ       0.0010   XYYZ      -0.0003   YYYZ       0.0008
      XXZZ    -511.2159   XYZZ      -6.8347   YYZZ    -138.3059
      XZZZ       0.0016   YZZZ       0.0010   ZZZZ    -586.0340
 -----------------------------------------------------------------
 Calculating analytic gradient of the SCF energy
 Gradient of SCF Energy
            1           2           3           4           5           6
    1  -0.0015875   0.0019670  -0.0006774   0.0001093   0.0015131   0.0002519
    2   0.0019287  -0.0017914   0.0000071  -0.0072450   0.0061297   0.0010810
    3  -0.0025291  -0.0001645   0.0016446   0.0028854  -0.0007857  -0.0004022
            7           8           9          10          11          12
    1  -0.0015132   0.0015876  -0.0001095  -0.0019670   0.0006776  -0.0001864
    2  -0.0061297  -0.0019287   0.0072450   0.0017915  -0.0000070  -0.0000010
    3  -0.0007854  -0.0025294   0.0028852  -0.0001644   0.0016445   0.0000020
           13          14          15          16
    1   0.0000968   0.0001864  -0.0000968  -0.0002519
    2   0.0017642   0.0000010  -0.0017642  -0.0010811
    3  -0.0006504   0.0000020  -0.0006504  -0.0004022
 Max gradient component =       7.245E-03
 RMS gradient           =       2.320E-03
 Gradient time:  CPU 1.80 s  wall 1.74 s
 Geometry Optimization Parameters
   NAtoms,    NIC,     NZ,  NCons,   NDum,   NFix, NCnnct, MaxDiis
       16     111       0       1       0       0       0       0

 Cartesian Hessian Update
 Hessian Updated using BFGS Update


** CONSTRAINED OPTIMIZATION IN DELOCALIZED INTERNAL COORDINATES **
   Searching for a Minimum

   Optimization Cycle:   2

                       Coordinates (Angstroms)
     ATOM                X               Y               Z
      1  S         1.6995479602    0.6176226220    1.0425319681
      2  C         3.2063793051    0.0932755075    0.2891618313
      3  C         2.9560131499   -0.5053075381   -0.9333289055
      4  C         1.5859908671   -0.6018946760   -1.2662400602
      5  C         0.7124970281   -0.0257955952   -0.3237994403
      6  H         1.2137588128   -1.0838979439   -2.1642366720
      7  C        -0.7124970281    0.0257955952   -0.3237994403
      8  S        -1.6995479602   -0.6176226220    1.0425319681
      9  C        -1.5859908671    0.6018946760   -1.2662400602
     10  C        -3.2063793051   -0.0932755075    0.2891618313
     11  C        -2.9560131499    0.5053075381   -0.9333289055
     12  H        -3.7484684583    0.9108166436   -1.5585160994
     13  H         4.1517934683    0.2415447437    0.7925965124
     14  H         3.7484684583   -0.9108166436   -1.5585160994
     15  H        -4.1517934683   -0.2415447437    0.7925965124
     16  H        -1.2137588128    1.0838979439   -2.1642366720
   Point Group: c2    Number of degrees of freedom:    22


   Energy is  -1104.831668494

              Constraints and their Current Values
                                        Value     Constraint
   Dihedral:        4   5   7   9      -60.000      -60.000
 Hessian Updated using BFGS Update

 17 Hessian modes will be used to form the next step
  Hessian Eigenvalues:
     0.022667    0.047254    0.159834    0.160000    0.160330    0.218904
     0.239484    0.254166    0.265969    0.283799    0.351010    0.354184
     0.358572    0.411986    0.425985    0.470673    0.509916

 Minimum Search - Taking Simple RFO Step
 Searching for Lamda that Minimizes Along All modes
 Value Taken    Lamda =  -0.00243995
 Calculated Step too Large.  Step scaled by  0.977534
 Step Taken.  Stepsize is  0.300000

                             Maximum     Tolerance    Cnvgd?
         Gradient           0.006213      0.000300      NO
         Displacement       0.238816      0.001200      NO
         Energy change     -0.003118      0.000001      NO


 New Cartesian Coordinates Obtained by Inverse Iteration

 Displacement from previous Coordinates is:  0.510812
 ----------------------------------------------------------------
             Standard Nuclear Orientation (Angstroms)
    I     Atom           X                Y                Z
 ----------------------------------------------------------------
    1      S       1.6928889690     0.5654845225     1.0788385417
    2      C       3.1969317335     0.0676080695     0.3099165195
    3      C       2.9595841143    -0.4578876057    -0.9500208409
    4      C       1.5912083851    -0.5396254047    -1.2902306114
    5      C       0.7135257184     0.0045483021    -0.3380228601
    6      H       1.2187601498    -1.0092066007    -2.1954333395
    7      C      -0.7135257184    -0.0045483021    -0.3380228601
    8      S      -1.6928889690    -0.5654845225     1.0788385417
    9      C      -1.5912083851     0.5396254047    -1.2902306114
   10      C      -3.1969317335    -0.0676080695     0.3099165195
   11      C      -2.9595841143     0.4578876057    -0.9500208409
   12      H      -3.7526575056     0.8542426496    -1.5798185791
   13      H       4.1348424569     0.1412512700     0.8429403042
   14      H       3.7526575056    -0.8542426496    -1.5798185791
   15      H      -4.1348424569    -0.1412512700     0.8429403042
   16      H      -1.2187601498     1.0092066007    -2.1954333395
 ----------------------------------------------------------------
 Molecular Point Group                 C2    NOp =  2
 Largest Abelian Subgroup              C2    NOp =  2
 Nuclear Repulsion Energy =   622.9523939250 hartrees
 There are       44 alpha and       43 beta electrons
 Applying Cartesian multipole field
    Component          Value
    ---------          -----
     (2,0,0)        1.00000E-11
     (0,2,0)        2.00000E-11
     (0,0,2)       -3.00000E-11
 Nucleus-field energy     =     0.0000000072 hartrees
 Requested basis set is 6-31++G(d,p)
 There are 76 shells and 234 basis functions
 A cutoff of  1.0D-11 yielded   2481 shell pairs
 There are     24475 function pairs
 Smallest overlap matrix eigenvalue = 1.51E-06

 Q-Chem warning in module /project/projectdirs/jcesr/qchem/qc44/cnl_qc441/compile/cori/qc_src/stvman/mkSTV.C, line 257:

 Overlap eigenvalue is smaller than square root of threshold

 Guess MOs from SCF MO coefficient file
 Reading MOs from coefficient file
 Reading MOs from coefficient file
 An unrestricted hybrid HF-DFT SCF calculation will be
 performed using Pulay DIIS extrapolation
 Exchange:     0.2000 Hartree-Fock + 0.0800 Slater + 0.7200 B88
 Correlation:  0.1900 VWN1RPA + 0.8100 LYP
 Using SG-1 standard quadrature grid
 SCF converges when DIIS error is below 1.0E-08
 Geometry optimization detected.  Setting ReadMinima to 0
 Setting SaveMinima to 0
 ---------------------------------------
  Cycle       Energy         DIIS Error
 ---------------------------------------
    1   -1104.8163864661      2.45E-03
    2   -1104.8323600870      2.74E-04
    3   -1104.8313316126      4.61E-04
    4   -1104.8331733549      8.44E-05
    5   -1104.8332258036      3.25E-05
    6   -1104.8332328632      1.77E-05
    7   -1104.8332357311      3.85E-06
    8   -1104.8332359975      1.03E-06
    9   -1104.8332360618      5.45E-07
   10   -1104.8332360952      2.68E-07
   11   -1104.8332361120      1.17E-07
   12   -1104.8332361152      5.59E-08
   13   -1104.8332361157      2.23E-08
   14   -1104.8332361167      5.81E-09 Convergence criterion met
 ---------------------------------------
 <S^2> = 0.7616
 SCF time:  CPU 9.16 s  wall 8.19 s
 SCF   energy in the final basis set = -1104.8332361167
 Total energy in the final basis set = -1104.8332361167
 
 --------------------------------------------------------------
             Orbital Energies (a.u.) and Symmetries
 --------------------------------------------------------------
 
 Alpha MOs, Unrestricted
 -- Occupied --                  
-88.749 -88.749 -10.064 -10.063 -10.057 -10.057 -10.048 -10.048
  1 B     1 A     2 A     2 B     3 B     3 A     4 B     4 A                  
-10.036 -10.036  -7.808  -7.808  -5.772  -5.772  -5.769  -5.769
  5 B     5 A     6 B     6 A     7 B     7 A     8 B     8 A                  
 -5.765  -5.765  -0.721  -0.702  -0.603  -0.579  -0.572  -0.536
  9 B     9 A    10 A    10 B    11 A    12 A    11 B    12 B                  
 -0.445  -0.409  -0.399  -0.370  -0.361  -0.316  -0.259  -0.252
 13 A    14 A    13 B    14 B    15 A    15 B    16 A    17 A                  
 -0.250  -0.239  -0.235  -0.211  -0.209  -0.190  -0.182  -0.109
 16 B    17 B    18 A    18 B    19 A    20 A    19 B    20 B                  
 -0.106  -0.103  -0.062   0.056
 21 A    21 B    22 A    22 B                                                  
 -- Virtual --                   
  0.094   0.096   0.109   0.114   0.123   0.129   0.137   0.151
 23 A    23 B    24 A    24 B    25 A    26 A    25 B    27 A                  
  0.152   0.154   0.167   0.175   0.176   0.177   0.181   0.190
 28 A    26 B    27 B    29 A    28 B    30 A    29 B    31 A                  
  0.194   0.205   0.208   0.213   0.215   0.221   0.228   0.228
 30 B    32 A    31 B    32 B    33 A    34 A    35 A    33 B                  
  0.231   0.234   0.242   0.244   0.249   0.256   0.258   0.264
 34 B    36 A    37 A    35 B    38 A    36 B    39 A    37 B                  
  0.274   0.275   0.277   0.287   0.294   0.296   0.298   0.300
 40 A    38 B    39 B    40 B    41 A    41 B    42 A    43 A                  
  0.307   0.325   0.326   0.335   0.338   0.345   0.346   0.363
 42 B    43 B    44 A    45 A    44 B    46 A    45 B    46 B                  
  0.370   0.390   0.394   0.398   0.407   0.437   0.444   0.448
 47 B    47 A    48 B    48 A    49 A    50 A    49 B    50 B                  
  0.459   0.461   0.463   0.485   0.490   0.511   0.543   0.578
 51 A    51 B    52 A    53 A    52 B    53 B    54 A    54 B                  
  0.599   0.618   0.645   0.667   0.670   0.709   0.714   0.715
 55 A    56 A    55 B    56 B    57 A    57 B    58 B    58 A                  
  0.753   0.760   0.771   0.806   0.809   0.821   0.822   0.844
 59 A    59 B    60 A    61 A    60 B    61 B    62 A    63 A                  
  0.856   0.869   0.873   0.893   0.903   0.903   0.912   0.935
 62 B    64 A    63 B    64 B    65 A    65 B    66 A    66 B                  
  0.952   0.965   0.981   0.997   1.042   1.049   1.096   1.100
 67 A    67 B    68 A    68 B    69 A    69 B    70 A    70 B                  
  1.104   1.107   1.116   1.122   1.133   1.140   1.151   1.159
 71 B    71 A    72 A    72 B    73 A    73 B    74 A    74 B                  
  1.185   1.190   1.211   1.231   1.249   1.251   1.264   1.264
 75 B    75 A    76 B    76 A    77 A    77 B    78 A    78 B                  
  1.322   1.346   1.363   1.398   1.429   1.471   1.502   1.503
 79 A    80 A    79 B    80 B    81 A    81 B    82 A    82 B                  
  1.522   1.533   1.560   1.570   1.634   1.641   1.695   1.748
 83 A    83 B    84 A    84 B    85 B    85 A    86 A    86 B                  
  1.843   1.844   1.881   1.974   2.023   2.047   2.050   2.059
 87 B    87 A    88 B    88 A    89 A    89 B    90 A    90 B                  
  2.088   2.102   2.108   2.160   2.171   2.196   2.234   2.264
 91 A    92 A    91 B    93 A    92 B    93 B    94 A    95 A                  
  2.298   2.329   2.332   2.356   2.396   2.403   2.472   2.516
 94 B    96 A    95 B    96 B    97 A    97 B    98 A    99 A                  
  2.521   2.578   2.592   2.601   2.629   2.639   2.665   2.671
 98 B    99 B   100 A   101 A   100 B   101 B   102 B   102 A                  
  2.690   2.734   2.746   2.776   2.798   2.835   2.866   2.931
103 A   104 A   103 B   105 A   104 B   105 B   106 A   106 B                  
  2.945   3.023   3.031   3.105   3.298   3.345   3.415   3.417
107 A   108 A   107 B   108 B   109 A   109 B   110 B   110 A                  
  3.554   3.572   3.862   3.885   4.109   4.146   4.442   4.467
111 A   111 B   112 A   112 B   113 A   113 B   114 A   115 A                  
  4.483   4.485   4.582   4.682   4.809   4.863
114 B   115 B   116 A   116 B   117 A   117 B                                  
 
 Beta MOs, Unrestricted
 -- Occupied --                  
-88.748 -88.748 -10.062 -10.061 -10.054 -10.054 -10.049 -10.049
  1 B     1 A     2 A     2 B     3 B     3 A     4 B     4 A                  
-10.034 -10.034  -7.807  -7.807  -5.772  -5.772  -5.768  -5.768
  5 B     5 A     6 B     6 A     7 B     7 A     8 B     8 A                  
 -5.763  -5.763  -0.717  -0.698  -0.597  -0.575  -0.569  -0.532
  9 B     9 A    10 A    10 B    11 A    12 A    11 B    12 B                  
 -0.438  -0.406  -0.395  -0.367  -0.360  -0.314  -0.257  -0.250
 13 A    14 A    13 B    14 B    15 A    15 B    16 A    17 A                  
 -0.248  -0.232  -0.231  -0.206  -0.200  -0.187  -0.179  -0.098
 16 B    18 A    17 B    18 B    19 A    20 A    19 B    21 A                  
 -0.095  -0.092  -0.045
 20 B    21 B    22 A                                                          
 -- Virtual --                   
  0.093   0.096   0.109   0.109   0.113   0.123   0.137   0.139
 23 A    22 B    23 B    24 A    24 B    25 A    25 B    26 A                  
  0.151   0.154   0.156   0.168   0.176   0.176   0.178   0.185
 27 A    26 B    28 A    27 B    29 A    28 B    30 A    29 B                  
  0.193   0.196   0.205   0.208   0.214   0.215   0.222   0.228
 31 A    30 B    32 A    31 B    32 B    33 A    34 A    35 A                  
  0.229   0.232   0.234   0.245   0.246   0.249   0.257   0.261
 33 B    34 B    36 A    35 B    37 A    38 A    36 B    39 A                  
  0.265   0.275   0.276   0.278   0.288   0.296   0.298   0.298
 37 B    40 A    38 B    39 B    40 B    41 A    41 B    42 A                  
  0.305   0.308   0.326   0.326   0.335   0.340   0.345   0.347
 43 A    42 B    43 B    44 A    45 A    44 B    46 A    45 B                  
  0.364   0.370   0.391   0.395   0.399   0.407   0.438   0.445
 46 B    47 B    47 A    48 B    48 A    49 A    50 A    49 B                  
  0.450   0.462   0.463   0.463   0.486   0.490   0.514   0.544
 50 B    51 A    51 B    52 A    53 A    52 B    53 B    54 A                  
  0.580   0.601   0.620   0.648   0.669   0.672   0.712   0.717
 54 B    55 A    56 A    55 B    56 B    57 A    57 B    58 B                  
  0.717   0.755   0.762   0.772   0.812   0.816   0.826   0.833
 58 A    59 A    59 B    60 A    60 B    61 A    62 A    61 B                  
  0.847   0.859   0.872   0.875   0.896   0.907   0.907   0.914
 63 A    62 B    64 A    63 B    64 B    65 B    65 A    66 A                  
  0.938   0.954   0.971   0.988   1.003   1.044   1.051   1.098
 66 B    67 A    67 B    68 A    68 B    69 A    69 B    70 A                  
  1.102   1.106   1.108   1.119   1.123   1.135   1.143   1.154
 70 B    71 B    71 A    72 A    72 B    73 A    73 B    74 A                  
  1.160   1.187   1.192   1.215   1.235   1.251   1.254   1.266
 74 B    75 B    75 A    76 B    76 A    77 A    77 B    78 A                  
  1.268   1.324   1.350   1.365   1.400   1.432   1.474   1.505
 78 B    79 A    80 A    79 B    80 B    81 A    81 B    82 B                  
  1.507   1.525   1.538   1.564   1.572   1.637   1.643   1.700
 82 A    83 A    83 B    84 A    84 B    85 B    85 A    86 A                  
  1.753   1.853   1.855   1.890   1.976   2.025   2.049   2.056
 86 B    87 B    87 A    88 B    88 A    89 A    89 B    90 A                  
  2.061   2.089   2.106   2.113   2.163   2.175   2.197   2.238
 90 B    91 A    92 A    91 B    93 A    92 B    93 B    94 A                  
  2.272   2.305   2.336   2.338   2.362   2.400   2.407   2.477
 95 A    94 B    95 B    96 A    96 B    97 A    97 B    98 A                  
  2.518   2.523   2.582   2.595   2.604   2.631   2.642   2.669
 99 A    98 B    99 B   100 A   101 A   100 B   101 B   102 B                  
  2.673   2.695   2.736   2.750   2.779   2.800   2.838   2.870
102 A   103 A   104 A   103 B   105 A   104 B   105 B   106 A                  
  2.933   2.947   3.026   3.032   3.107   3.299   3.346   3.415
106 B   107 A   108 A   107 B   108 B   109 A   109 B   110 B                  
  3.418   3.555   3.574   3.863   3.887   4.111   4.148   4.446
110 A   111 A   111 B   112 A   112 B   113 A   113 B   114 A                  
  4.469   4.485   4.489   4.587   4.687   4.812   4.866
115 A   114 B   115 B   116 A   116 B   117 A   117 B                          
 --------------------------------------------------------------
 
          Ground-State Mulliken Net Atomic Charges

     Atom                 Charge (a.u.)    Spin (a.u.)
  --------------------------------------------------------
      1 S                    -0.198329       0.130990
      2 C                    -0.177307       0.231343
      3 C                    -0.364673      -0.058409
      4 C                     0.020916       0.172598
      5 C                    -0.091599       0.032139
      6 H                     0.101522      -0.002328
      7 C                    -0.091599       0.032138
      8 S                    -0.198329       0.130990
      9 C                     0.020916       0.172598
     10 C                    -0.177307       0.231343
     11 C                    -0.364673      -0.058409
     12 H                     0.070880       0.002551
     13 H                     0.138590      -0.008884
     14 H                     0.070880       0.002551
     15 H                     0.138590      -0.008884
     16 H                     0.101522      -0.002328
  --------------------------------------------------------
  Sum of atomic charges =    -1.000000
  Sum of spin   charges =     1.000000

 -----------------------------------------------------------------
                    Cartesian Multipole Moments
 -----------------------------------------------------------------
    Charge (ESU x 10^10)
                -4.8032
    Dipole Moment (Debye)
         X      -0.0000      Y      -0.0000      Z      -0.4840
       Tot       0.4840
    Quadrupole Moments (Debye-Ang)
        XX    -100.3653     XY      -2.2563     YY     -86.3345
        XZ       0.0000     YZ       0.0000     ZZ     -84.2722
    Octopole Moments (Debye-Ang^2)
       XXX      -0.0000    XXY       0.0000    XYY      -0.0000
       YYY      -0.0000    XXZ       8.4419    XYZ       5.0768
       YYZ      -0.1570    XZZ      -0.0000    YZZ      -0.0000
       ZZZ      -2.2760
    Hexadecapole Moments (Debye-Ang^3)
      XXXX   -2522.4451   XXXY     -24.8789   XXYY    -498.2145
      XYYY       9.1726   YYYY    -259.4437   XXXZ       0.0000
      XXYZ       0.0000   XYYZ      -0.0000   YYYZ       0.0000
      XXZZ    -510.6959   XYZZ      -7.4674   YYZZ    -140.1099
      XZZZ       0.0000   YZZZ       0.0000   ZZZZ    -607.9007
 -----------------------------------------------------------------
 Calculating analytic gradient of the SCF energy
 Gradient of SCF Energy
            1           2           3           4           5           6
    1   0.0011348  -0.0007824   0.0003430  -0.0012185   0.0043348  -0.0001993
    2   0.0022455  -0.0015741   0.0017799  -0.0067080   0.0103676   0.0001476
    3   0.0001008   0.0011438  -0.0015558   0.0060382  -0.0053673  -0.0001038
            7           8           9          10          11          12
    1  -0.0043348  -0.0011348   0.0012185   0.0007824  -0.0003431   0.0000496
    2  -0.0103676  -0.0022455   0.0067080   0.0015741  -0.0017799   0.0004874
    3  -0.0053673   0.0001008   0.0060382   0.0011438  -0.0015558   0.0000530
           13          14          15          16
    1  -0.0000507  -0.0000496   0.0000507   0.0001993
    2   0.0005475  -0.0004874  -0.0005475  -0.0001476
    3  -0.0003089   0.0000530  -0.0003089  -0.0001038
 Max gradient component =       1.037E-02
 RMS gradient           =       3.261E-03
 Gradient time:  CPU 1.73 s  wall 1.74 s
 Geometry Optimization Parameters
   NAtoms,    NIC,     NZ,  NCons,   NDum,   NFix, NCnnct, MaxDiis
       16     111       0       1       0       0       0       0

 Cartesian Hessian Update
 Hessian Updated using BFGS Update


** CONSTRAINED OPTIMIZATION IN DELOCALIZED INTERNAL COORDINATES **
   Searching for a Minimum

   Optimization Cycle:   3

                       Coordinates (Angstroms)
     ATOM                X               Y               Z
      1  S         1.6928889690    0.5654845225    1.0788385417
      2  C         3.1969317335    0.0676080695    0.3099165195
      3  C         2.9595841143   -0.4578876057   -0.9500208409
      4  C         1.5912083851   -0.5396254047   -1.2902306114
      5  C         0.7135257184    0.0045483021   -0.3380228601
      6  H         1.2187601498   -1.0092066007   -2.1954333395
      7  C        -0.7135257184   -0.0045483021   -0.3380228601
      8  S        -1.6928889690   -0.5654845225    1.0788385417
      9  C        -1.5912083851    0.5396254047   -1.2902306114
     10  C        -3.1969317335   -0.0676080695    0.3099165195
     11  C        -2.9595841143    0.4578876057   -0.9500208409
     12  H        -3.7526575056    0.8542426496   -1.5798185791
     13  H         4.1348424569    0.1412512700    0.8429403042
     14  H         3.7526575056   -0.8542426496   -1.5798185791
     15  H        -4.1348424569   -0.1412512700    0.8429403042
     16  H        -1.2187601498    1.0092066007   -2.1954333395
   Point Group: c2    Number of degrees of freedom:    22


   Energy is  -1104.833236117

              Constraints and their Current Values
                                        Value     Constraint
   Dihedral:        4   5   7   9      -60.000      -60.000
 Hessian Updated using BFGS Update

 20 Hessian modes will be used to form the next step
  Hessian Eigenvalues:
     0.014668    0.045000    0.045000    0.045101    0.049876    0.159910
     0.160129    0.160447    0.222925    0.249067    0.256441    0.271605
     0.283829    0.351001    0.354268    0.358617    0.425011    0.426197
     0.471287    0.513331

 Minimum Search - Taking Simple RFO Step
 Searching for Lamda that Minimizes Along All modes
 Value Taken    Lamda =  -0.00081027
 Step Taken.  Stepsize is  0.211062

                             Maximum     Tolerance    Cnvgd?
         Gradient           0.003520      0.000300      NO
         Displacement       0.158460      0.001200      NO
         Energy change     -0.001568      0.000001      NO


 New Cartesian Coordinates Obtained by Inverse Iteration

 Displacement from previous Coordinates is:  0.372380
 ----------------------------------------------------------------
             Standard Nuclear Orientation (Angstroms)
    I     Atom           X                Y                Z
 ----------------------------------------------------------------
    1      S       1.6754975874     0.5154350255     1.0957799336
    2      C       3.1895243342     0.0501117058     0.3281628827
    3      C       2.9672258286    -0.4348089066    -0.9505413183
    4      C       1.6030248859    -0.4988520867    -1.3129721411
    5      C       0.7118555057     0.0234301773    -0.3580647718
    6      H       1.2409397351    -0.9546834891    -2.2293331504
    7      C      -0.7118555057    -0.0234301773    -0.3580647718
    8      S      -1.6754975874    -0.5154350255     1.0957799336
    9      C      -1.6030248859     0.4988520867    -1.3129721411
   10      C      -3.1895243342    -0.0501117058     0.3281628827
   11      C      -2.9672258286     0.4348089066    -0.9505413183
   12      H      -3.7671769712     0.8195366705    -1.5784006017
   13      H       4.1172957134     0.0782585279     0.8835383015
   14      H       3.7671769712    -0.8195366705    -1.5784006017
   15      H      -4.1172957134    -0.0782585279     0.8835383015
   16      H      -1.2409397351     0.9546834891    -2.2293331504
 ----------------------------------------------------------------
 Molecular Point Group                 C2    NOp =  2
 Largest Abelian Subgroup              C2    NOp =  2
 Nuclear Repulsion Energy =   623.6700591486 hartrees
 There are       44 alpha and       43 beta electrons
 Applying Cartesian multipole field
    Component          Value
    ---------          -----
     (2,0,0)        1.00000E-11
     (0,2,0)        2.00000E-11
     (0,0,2)       -3.00000E-11
 Nucleus-field energy     =     0.0000000066 hartrees
 Requested basis set is 6-31++G(d,p)
 There are 76 shells and 234 basis functions
 A cutoff of  1.0D-11 yielded   2481 shell pairs
 There are     24475 function pairs
 Smallest overlap matrix eigenvalue = 1.84E-06

 Q-Chem warning in module /project/projectdirs/jcesr/qchem/qc44/cnl_qc441/compile/cori/qc_src/stvman/mkSTV.C, line 257:

 Overlap eigenvalue is smaller than square root of threshold

 Guess MOs from SCF MO coefficient file
 Reading MOs from coefficient file
 Reading MOs from coefficient file
 An unrestricted hybrid HF-DFT SCF calculation will be
 performed using Pulay DIIS extrapolation
 Exchange:     0.2000 Hartree-Fock + 0.0800 Slater + 0.7200 B88
 Correlation:  0.1900 VWN1RPA + 0.8100 LYP
 Using SG-1 standard quadrature grid
 SCF converges when DIIS error is below 1.0E-08
 Geometry optimization detected.  Setting ReadMinima to 0
 Setting SaveMinima to 0
 ---------------------------------------
  Cycle       Energy         DIIS Error
 ---------------------------------------
    1   -1104.8207358389      1.55E-03
    2   -1104.8333138211      2.07E-04
    3   -1104.8327047301      3.51E-04
    4   -1104.8337384457      7.08E-05
    5   -1104.8337770374      2.33E-05
    6   -1104.8337806607      1.23E-05
    7   -1104.8337820101      2.28E-06
    8   -1104.8337821244      6.51E-07
    9   -1104.8337821536      3.94E-07
   10   -1104.8337821689      1.79E-07
   11   -1104.8337821758      7.33E-08
   12   -1104.8337821762      3.73E-08
   13   -1104.8337821768      1.10E-08
   14   -1104.8337821770      4.17E-09 Convergence criterion met
 ---------------------------------------
 <S^2> = 0.7621
 SCF time:  CPU 9.07 s  wall 8.17 s
 SCF   energy in the final basis set = -1104.8337821770
 Total energy in the final basis set = -1104.8337821770
 
 --------------------------------------------------------------
             Orbital Energies (a.u.) and Symmetries
 --------------------------------------------------------------
 
 Alpha MOs, Unrestricted
 -- Occupied --                  
-88.749 -88.749 -10.064 -10.064 -10.057 -10.057 -10.048 -10.048
  1 B     1 A     2 A     2 B     3 B     3 A     4 B     4 A                  
-10.036 -10.036  -7.808  -7.808  -5.772  -5.772  -5.769  -5.769
  5 B     5 A     6 B     6 A     7 B     7 A     8 B     8 A                  
 -5.765  -5.765  -0.721  -0.701  -0.604  -0.579  -0.572  -0.536
  9 A     9 B    10 A    10 B    11 A    12 A    11 B    12 B                  
 -0.445  -0.409  -0.398  -0.370  -0.361  -0.316  -0.260  -0.252
 13 A    14 A    13 B    14 B    15 A    15 B    16 A    17 A                  
 -0.250  -0.238  -0.236  -0.211  -0.208  -0.191  -0.181  -0.111
 16 B    17 B    18 A    18 B    19 A    20 A    19 B    20 B                  
 -0.105  -0.103  -0.060   0.054
 21 A    21 B    22 A    22 B                                                  
 -- Virtual --                   
  0.094   0.096   0.109   0.114   0.124   0.130   0.138   0.151
 23 A    23 B    24 A    24 B    25 A    26 A    25 B    27 A                  
  0.152   0.155   0.169   0.173   0.175   0.177   0.181   0.191
 28 A    26 B    27 B    29 A    28 B    30 A    29 B    31 A                  
  0.197   0.205   0.207   0.213   0.216   0.222   0.228   0.229
 30 B    32 A    31 B    32 B    33 A    34 A    35 A    33 B                  
  0.231   0.233   0.243   0.245   0.250   0.256   0.258   0.266
 34 B    36 A    37 A    35 B    38 A    39 A    36 B    37 B                  
  0.273   0.276   0.278   0.286   0.295   0.296   0.298   0.302
 40 A    38 B    39 B    40 B    41 A    41 B    42 A    43 A                  
  0.309   0.324   0.327   0.333   0.338   0.344   0.344   0.363
 42 B    44 A    43 B    45 A    44 B    46 A    45 B    46 B                  
  0.370   0.388   0.397   0.400   0.407   0.437   0.441   0.449
 47 B    47 A    48 B    48 A    49 A    50 A    49 B    50 B                  
  0.458   0.462   0.463   0.484   0.488   0.511   0.542   0.575
 51 A    52 A    51 B    53 A    52 B    53 B    54 A    54 B                  
  0.597   0.618   0.642   0.668   0.669   0.706   0.711   0.720
 55 A    56 A    55 B    56 B    57 A    57 B    58 A    58 B                  
  0.748   0.764   0.766   0.807   0.811   0.821   0.822   0.843
 59 A    59 B    60 A    61 A    60 B    62 A    61 B    63 A                  
  0.859   0.869   0.872   0.889   0.901   0.904   0.909   0.941
 62 B    64 A    63 B    64 B    65 A    65 B    66 A    66 B                  
  0.950   0.963   0.980   0.996   1.041   1.049   1.092   1.101
 67 A    67 B    68 A    68 B    69 A    69 B    70 A    70 B                  
  1.104   1.105   1.119   1.122   1.133   1.136   1.152   1.156
 71 B    71 A    72 A    72 B    73 A    73 B    74 A    74 B                  
  1.186   1.192   1.212   1.230   1.249   1.252   1.261   1.265
 75 A    75 B    76 B    76 A    77 A    77 B    78 B    78 A                  
  1.317   1.345   1.359   1.394   1.430   1.474   1.494   1.498
 79 A    80 A    79 B    80 B    81 A    81 B    82 B    82 A                  
  1.520   1.539   1.555   1.567   1.627   1.637   1.700   1.760
 83 A    83 B    84 B    84 A    85 A    85 B    86 A    86 B                  
  1.840   1.847   1.866   1.976   2.025   2.047   2.049   2.059
 87 B    87 A    88 B    88 A    89 A    89 B    90 A    90 B                  
  2.087   2.109   2.113   2.159   2.170   2.189   2.236   2.260
 91 A    91 B    92 A    93 A    92 B    93 B    94 A    95 A                  
  2.297   2.318   2.330   2.354   2.399   2.408   2.470   2.518
 94 B    96 A    95 B    96 B    97 A    97 B    98 A    99 A                  
  2.523   2.576   2.584   2.600   2.628   2.641   2.667   2.670
 98 B    99 B   100 A   101 A   100 B   101 B   102 B   102 A                  
  2.693   2.733   2.747   2.780   2.796   2.834   2.867   2.928
103 A   104 A   103 B   105 A   104 B   105 B   106 A   106 B                  
  2.943   3.022   3.032   3.102   3.297   3.345   3.416   3.417
107 A   108 A   107 B   108 B   109 A   109 B   110 B   110 A                  
  3.552   3.570   3.860   3.884   4.105   4.151   4.441   4.467
111 A   111 B   112 A   112 B   113 A   113 B   114 A   115 A                  
  4.482   4.484   4.582   4.681   4.808   4.861
114 B   115 B   116 A   116 B   117 A   117 B                                  
 
 Beta MOs, Unrestricted
 -- Occupied --                  
-88.748 -88.748 -10.062 -10.062 -10.054 -10.054 -10.049 -10.049
  1 B     1 A     2 A     2 B     3 B     3 A     4 B     4 A                  
-10.034 -10.034  -7.807  -7.807  -5.772  -5.772  -5.768  -5.768
[...]
      4 C                    -0.098235       0.186704
      5 C                     0.027036       0.031993
      6 H                     0.102091      -0.004606
      7 C                     0.027036       0.031993
      8 S                    -0.224451       0.123056
      9 C                    -0.098235       0.186704
     10 C                    -0.194470       0.239132
     11 C                    -0.325106      -0.068830
     12 H                     0.070953       0.002903
     13 H                     0.142181      -0.010352
     14 H                     0.070953       0.002903
     15 H                     0.142181      -0.010352
     16 H                     0.102091      -0.004606
  --------------------------------------------------------
  Sum of atomic charges =    -1.000000
  Sum of spin   charges =     1.000000

 -----------------------------------------------------------------
                    Cartesian Multipole Moments
 -----------------------------------------------------------------
    Charge (ESU x 10^10)
                -4.8032
    Dipole Moment (Debye)
         X      -0.0000      Y      -0.0000      Z      -0.4141
       Tot       0.4141
    Quadrupole Moments (Debye-Ang)
        XX    -100.1626     XY      -2.2858     YY     -86.3974
        XZ       0.0000     YZ       0.0000     ZZ     -83.8900
    Octopole Moments (Debye-Ang^2)
       XXX      -0.0000    XXY      -0.0000    XYY       0.0000
       YYY      -0.0000    XXZ       8.8933    XYZ       4.5151
       YYZ      -0.2275    XZZ      -0.0000    YZZ      -0.0000
       ZZZ      -2.4300
    Hexadecapole Moments (Debye-Ang^3)
      XXXX   -2501.1161   XXXY     -15.3912   XXYY    -490.6742
      XYYY      26.7376   YYYY    -227.1547   XXXZ      -0.0000
      XXYZ       0.0000   XYYZ      -0.0000   YYYZ       0.0000
      XXZZ    -503.8599   XYZZ      -1.9868   YYZZ    -142.8213
      XZZZ       0.0000   YZZZ       0.0000   ZZZZ    -625.2892
 -----------------------------------------------------------------
 Calculating analytic gradient of the SCF energy
 Gradient of SCF Energy
            1           2           3           4           5           6
    1   0.0000280   0.0000025   0.0000156   0.0003387  -0.0007861  -0.0000022
    2   0.0000234   0.0000761  -0.0000624  -0.0080562   0.0179369   0.0000264
    3  -0.0000092  -0.0000117   0.0000015   0.0046866  -0.0046558  -0.0000131
            7           8           9          10          11          12
    1   0.0007861  -0.0000280  -0.0003387  -0.0000025  -0.0000156  -0.0000041
    2  -0.0179369  -0.0000234   0.0080562  -0.0000761   0.0000624  -0.0000532
    3  -0.0046558  -0.0000092   0.0046866  -0.0000117   0.0000015  -0.0000194
           13          14          15          16
    1  -0.0000111   0.0000041   0.0000111   0.0000022
    2  -0.0000471   0.0000532   0.0000471  -0.0000264
    3   0.0000210  -0.0000194   0.0000210  -0.0000131
 Max gradient component =       1.794E-02
 RMS gradient           =       4.238E-03
 Gradient time:  CPU 1.74 s  wall 1.75 s
 Geometry Optimization Parameters
   NAtoms,    NIC,     NZ,  NCons,   NDum,   NFix, NCnnct, MaxDiis
       16     111       0       1       0       0       0       0

 Cartesian Hessian Update
 Hessian Updated using BFGS Update


** CONSTRAINED OPTIMIZATION IN DELOCALIZED INTERNAL COORDINATES **
   Searching for a Minimum

   Optimization Cycle:  10

                       Coordinates (Angstroms)
     ATOM                X               Y               Z
      1  S         1.6426617334    0.4605392822    1.1050652195
      2  C         3.1747408924    0.0210446778    0.3530542628
      3  C         2.9729295981   -0.4347005147   -0.9390737135
      4  C         1.6191355123   -0.4725600702   -1.3355775422
      5  C         0.7108305101    0.0346167923   -0.3816368110
      6  H         1.2771995376   -0.8841710834   -2.2799496530
      7  C        -0.7108305101   -0.0346167923   -0.3816368110
      8  S        -1.6426617334   -0.4605392822    1.1050652195
      9  C        -1.6191355123    0.4725600702   -1.3355775422
     10  C        -3.1747408924   -0.0210446778    0.3530542628
     11  C        -2.9729295981    0.4347005147   -0.9390737135
     12  H        -3.7860218523    0.7851381147   -1.5706150010
     13  H         4.0911821746    0.0384575431    0.9269023729
     14  H         3.7860218523   -0.7851381147   -1.5706150010
     15  H        -4.0911821746   -0.0384575431    0.9269023729
     16  H        -1.2771995376    0.8841710834   -2.2799496530
   Point Group: c2    Number of degrees of freedom:    22


   Energy is  -1104.834078346

              Constraints and their Current Values
                                        Value     Constraint
   Dihedral:        4   5   7   9      -60.000      -60.000
 Hessian Updated using BFGS Update

 21 Hessian modes will be used to form the next step
  Hessian Eigenvalues:
     0.007725    0.012572    0.023837    0.045040    0.045735    0.049377
     0.159212    0.160129    0.160384    0.222356    0.249062    0.257234
     0.265128    0.284855    0.351146    0.354269    0.358767    0.416486
     0.430454    0.471130    0.499803

 Minimum Search - Taking Simple RFO Step
 Searching for Lamda that Minimizes Along All modes
 Value Taken    Lamda =   0.00000000
 Step Taken.  Stepsize is  0.007078

                             Maximum     Tolerance    Cnvgd?
         Gradient           0.000089      0.000300     YES
         Displacement       0.004594      0.001200      NO
         Energy change     -0.000001      0.000001     YES

 Final energy is   -1104.83407834647     


 ******************************
 **  OPTIMIZATION CONVERGED  **
 ******************************

                       Coordinates (Angstroms)
     ATOM                X               Y               Z
      1  S         1.6426617334    0.4605392822    1.1050652195
      2  C         3.1747408924    0.0210446778    0.3530542628
      3  C         2.9729295981   -0.4347005147   -0.9390737135
      4  C         1.6191355123   -0.4725600702   -1.3355775422
      5  C         0.7108305101    0.0346167923   -0.3816368110
      6  H         1.2771995376   -0.8841710834   -2.2799496530
      7  C        -0.7108305101   -0.0346167923   -0.3816368110
      8  S        -1.6426617334   -0.4605392822    1.1050652195
      9  C        -1.6191355123    0.4725600702   -1.3355775422
     10  C        -3.1747408924   -0.0210446778    0.3530542628
     11  C        -2.9729295981    0.4347005147   -0.9390737135
     12  H        -3.7860218523    0.7851381147   -1.5706150010
     13  H         4.0911821746    0.0384575431    0.9269023729
     14  H         3.7860218523   -0.7851381147   -1.5706150010
     15  H        -4.0911821746   -0.0384575431    0.9269023729
     16  H        -1.2771995376    0.8841710834   -2.2799496530

Z-matrix Print:
$molecule
-1 2
S 
C  1 1.762368
H  2 1.081420 1 120.415261
C  2 1.384928 1 110.701405 3 -174.390758 0
H  4 1.087552 2 122.607426 1 178.167967 0
C  4 1.411172 2 114.253261 1 1.433529 0
H  6 1.085441 4 123.837764 2 174.402516 0
C  6 1.411471 4 114.696704 2 -3.654035 0
C  8 1.423346 6 128.702518 4 170.004628 0
C  9 1.411471 8 128.702518 6 59.999986 0
H  10 1.085441 9 121.436378 8 -8.103424 0
C  10 1.411172 9 114.696704 8 170.004628 0
H  12 1.087552 10 123.054021 9 179.628009 0
C  12 1.384928 10 114.253261 9 -3.654035 0
H  14 1.081420 12 128.599582 10 -172.374755 0
S  14 1.762368 12 110.701405 10 1.433529 0
$end

 
 --------------------------------------------------------------
             Orbital Energies (a.u.) and Symmetries
 --------------------------------------------------------------
 
 Alpha MOs, Unrestricted
 -- Occupied --                  
-88.749 -88.749 -10.064 -10.064 -10.056 -10.056 -10.048 -10.048
  1 B     1 A     2 A     2 B     3 B     3 A     4 B     4 A                  
-10.035 -10.035  -7.808  -7.808  -5.772  -5.772  -5.769  -5.769
  5 B     5 A     6 B     6 A     7 B     7 A     8 B     8 A                  
 -5.765  -5.765  -0.722  -0.701  -0.604  -0.579  -0.571  -0.536
  9 A     9 B    10 A    10 B    11 A    12 A    11 B    12 B                  
 -0.445  -0.410  -0.397  -0.370  -0.361  -0.315  -0.260  -0.252
 13 A    14 A    13 B    14 B    15 A    15 B    16 A    17 A                  
 -0.249  -0.239  -0.236  -0.210  -0.208  -0.192  -0.179  -0.114
 16 B    17 B    18 A    18 B    19 A    20 A    19 B    20 B                  
 -0.105  -0.104  -0.058   0.053
 21 A    21 B    22 A    22 B                                                  
 -- Virtual --                   
  0.094   0.097   0.109   0.114   0.124   0.131   0.139   0.151
 23 A    23 B    24 A    24 B    25 A    26 A    25 B    27 A                  
  0.154   0.156   0.171   0.172   0.175   0.177   0.181   0.192
 28 A    26 B    27 B    29 A    28 B    30 A    29 B    31 A                  
  0.200   0.206   0.206   0.214   0.216   0.223   0.228   0.230
 30 B    31 B    32 A    32 B    33 A    34 A    35 A    33 B                  
  0.232   0.233   0.244   0.246   0.250   0.255   0.260   0.268
 34 B    36 A    37 A    35 B    38 A    39 A    36 B    37 B                  
  0.272   0.277   0.278   0.284   0.295   0.298   0.298   0.304
 40 A    38 B    39 B    40 B    41 A    42 A    41 B    43 A                  
  0.311   0.323   0.328   0.332   0.338   0.343   0.344   0.361
 42 B    44 A    43 B    45 A    44 B    46 A    45 B    46 B                  
  0.372   0.386   0.399   0.399   0.407   0.436   0.438   0.449
 47 B    47 A    48 A    48 B    49 A    50 A    49 B    50 B                  
  0.456   0.462   0.465   0.484   0.487   0.511   0.541   0.572
 51 A    52 A    51 B    53 A    52 B    53 B    54 A    54 B                  
  0.597   0.619   0.640   0.669   0.670   0.704   0.707   0.724
 55 A    56 A    55 B    56 B    57 A    57 B    58 A    58 B                  
  0.743   0.765   0.768   0.807   0.811   0.821   0.823   0.842
 59 A    60 A    59 B    61 A    60 B    62 A    61 B    63 A                  
  0.861   0.869   0.872   0.887   0.901   0.907   0.908   0.947
 62 B    64 A    63 B    64 B    65 A    65 B    66 A    66 B                  
  0.948   0.959   0.982   0.995   1.041   1.051   1.090   1.103
 67 A    67 B    68 A    68 B    69 A    69 B    70 A    70 B                  
  1.105   1.110   1.120   1.120   1.128   1.134   1.154   1.154
 71 B    71 A    72 B    72 A    73 B    73 A    74 B    74 A                  
  1.186   1.201   1.214   1.228   1.252   1.255   1.263   1.267
 75 A    75 B    76 B    76 A    77 A    77 B    78 B    78 A                  
  1.315   1.345   1.357   1.389   1.427   1.477   1.491   1.498
 79 A    80 A    79 B    80 B    81 A    81 B    82 B    82 A                  
  1.514   1.536   1.552   1.564   1.635   1.638   1.700   1.775
 83 A    83 B    84 B    84 A    85 A    85 B    86 A    86 B                  
  1.828   1.847   1.862   1.979   2.023   2.047   2.049   2.061
 87 B    87 A    88 B    88 A    89 A    89 B    90 A    90 B                  
  2.083   2.108   2.122   2.163   2.164   2.188   2.232   2.261
 91 A    91 B    92 A    93 A    92 B    93 B    94 A    95 A                  
  2.295   2.310   2.322   2.358   2.401   2.416   2.461   2.518
 94 B    96 A    95 B    96 B    97 A    97 B    98 A    99 A                  
  2.525   2.581   2.591   2.598   2.631   2.634   2.667   2.671
 98 B    99 B   100 A   101 A   100 B   101 B   102 A   102 B                  
  2.692   2.733   2.744   2.785   2.794   2.836   2.865   2.924
103 A   104 A   103 B   105 A   104 B   105 B   106 A   106 B                  
  2.943   3.020   3.032   3.103   3.298   3.345   3.416   3.418
107 A   108 A   107 B   108 B   109 A   109 B   110 B   110 A                  
  3.553   3.570   3.860   3.884   4.101   4.158   4.438   4.468
111 A   111 B   112 A   112 B   113 A   113 B   114 A   115 A                  
  4.479   4.485   4.583   4.683   4.810   4.861
114 B   115 B   116 A   116 B   117 A   117 B                                  
 
 Beta MOs, Unrestricted
 -- Occupied --                  
-88.748 -88.748 -10.062 -10.062 -10.053 -10.053 -10.049 -10.049
  1 B     1 A     2 A     2 B     3 B     3 A     4 B     4 A                  
-10.034 -10.034  -7.807  -7.807  -5.772  -5.772  -5.768  -5.768
  5 B     5 A     6 B     6 A     7 B     7 A     8 B     8 A                  
 -5.763  -5.763  -0.718  -0.698  -0.598  -0.576  -0.568  -0.532
  9 A     9 B    10 A    10 B    11 A    12 A    11 B    12 B                  
 -0.438  -0.408  -0.393  -0.367  -0.360  -0.314  -0.258  -0.251
 13 A    14 A    13 B    14 B    15 A    15 B    16 A    17 A                  
 -0.247  -0.233  -0.230  -0.206  -0.199  -0.189  -0.176  -0.098
 16 B    18 A    17 B    18 B    19 A    20 A    19 B    20 B                  
 -0.097  -0.095  -0.041
 21 A    21 B    22 A                                                          
 -- Virtual --                   
  0.093   0.096   0.107   0.109   0.114   0.124   0.138   0.140
 23 A    22 B    23 B    24 A    24 B    25 A    25 B    26 A                  
  0.151   0.156   0.158   0.172   0.174   0.176   0.178   0.184
 27 A    26 B    28 A    27 B    29 A    28 B    30 A    29 B                  
  0.196   0.201   0.205   0.206   0.215   0.217   0.223   0.229
 31 A    30 B    32 A    31 B    32 B    33 A    34 A    35 A                  
  0.231   0.233   0.234   0.247   0.247   0.251   0.258   0.261
 33 B    34 B    36 A    37 A    35 B    38 A    39 A    36 B                  
  0.269   0.273   0.277   0.280   0.285   0.298   0.300   0.302
 37 B    40 A    38 B    39 B    40 B    41 A    41 B    42 A                  
  0.304   0.312   0.323   0.329   0.332   0.340   0.344   0.344
 43 A    42 B    44 A    43 B    45 A    44 B    46 A    45 B                  
  0.362   0.373   0.386   0.400   0.400   0.408   0.437   0.439
 46 B    47 B    47 A    48 A    48 B    49 A    50 A    49 B                  
  0.451   0.459   0.463   0.467   0.485   0.487   0.514   0.542
 50 B    51 A    52 A    51 B    53 A    52 B    53 B    54 A                  
  0.574   0.598   0.621   0.643   0.672   0.672   0.707   0.710
 54 B    55 A    56 A    55 B    57 A    56 B    57 B    58 A                  
  0.726   0.745   0.767   0.770   0.816   0.817   0.825   0.833
 58 B    59 A    60 A    59 B    60 B    61 A    62 A    61 B                  
  0.845   0.864   0.872   0.875   0.891   0.906   0.909   0.910
 63 A    62 B    64 A    63 B    64 B    65 A    65 B    66 A                  
  0.949   0.950   0.966   0.990   1.002   1.043   1.052   1.093
 67 A    66 B    67 B    68 A    68 B    69 A    69 B    70 A                  
  1.105   1.108   1.111   1.121   1.123   1.130   1.136   1.155
 70 B    71 B    71 A    72 B    72 A    73 B    73 A    74 B                  
  1.157   1.188   1.203   1.217   1.232   1.254   1.258   1.267
 74 A    75 A    75 B    76 B    76 A    77 A    77 B    78 B                  
  1.269   1.318   1.349   1.360   1.390   1.431   1.479   1.494
 78 A    79 A    80 A    79 B    80 B    81 A    81 B    82 B                  
  1.503   1.516   1.541   1.555   1.567   1.637   1.640   1.704
 82 A    83 A    83 B    84 B    84 A    85 A    85 B    86 A                  
  1.781   1.836   1.858   1.872   1.981   2.025   2.048   2.055
 86 B    87 B    87 A    88 B    88 A    89 A    89 B    90 A                  
  2.063   2.085   2.114   2.126   2.166   2.168   2.190   2.236
 90 B    91 A    91 B    92 A    93 A    92 B    93 B    94 A                  
  2.268   2.301   2.319   2.328   2.364   2.405   2.420   2.466
 95 A    94 B    96 A    95 B    96 B    97 A    97 B    98 A                  
  2.520   2.526   2.585   2.595   2.602   2.633   2.636   2.668
 99 A    98 B    99 B   100 A   101 A   100 B   101 B   102 A                  
  2.675   2.697   2.736   2.748   2.788   2.796   2.839   2.868
102 B   103 A   104 A   103 B   105 A   104 B   105 B   106 A                  
  2.927   2.945   3.023   3.034   3.105   3.299   3.346   3.416
106 B   107 A   108 A   107 B   108 B   109 A   109 B   110 B                  
  3.418   3.554   3.572   3.861   3.885   4.103   4.159   4.443
110 A   111 A   111 B   112 A   112 B   113 A   113 B   114 A                  
  4.470   4.483   4.488   4.589   4.688   4.812   4.864
115 A   114 B   115 B   116 A   116 B   117 A   117 B                          
 --------------------------------------------------------------
 
          Ground-State Mulliken Net Atomic Charges

     Atom                 Charge (a.u.)    Spin (a.u.)
  --------------------------------------------------------
      1 S                    -0.224451       0.123056
      2 C                    -0.194470       0.239132
      3 C                    -0.325106      -0.068830
      4 C                    -0.098235       0.186704
      5 C                     0.027036       0.031993
      6 H                     0.102091      -0.004606
      7 C                     0.027036       0.031993
      8 S                    -0.224451       0.123056
      9 C                    -0.098235       0.186704
     10 C                    -0.194470       0.239132
     11 C                    -0.325106      -0.068830
     12 H                     0.070953       0.002903
     13 H                     0.142181      -0.010352
     14 H                     0.070953       0.002903
     15 H                     0.142181      -0.010352
     16 H                     0.102091      -0.004606
  --------------------------------------------------------
  Sum of atomic charges =    -1.000000
  Sum of spin   charges =     1.000000

 -----------------------------------------------------------------
                    Cartesian Multipole Moments
 -----------------------------------------------------------------
    Charge (ESU x 10^10)
                -4.8032
    Dipole Moment (Debye)
         X      -0.0000      Y      -0.0000      Z      -0.4141
       Tot       0.4141
    Quadrupole Moments (Debye-Ang)
        XX    -100.1626     XY      -2.2858     YY     -86.3974
        XZ       0.0000     YZ       0.0000     ZZ     -83.8900
    Octopole Moments (Debye-Ang^2)
       XXX      -0.0000    XXY      -0.0000    XYY       0.0000
       YYY      -0.0000    XXZ       8.8933    XYZ       4.5151
       YYZ      -0.2275    XZZ      -0.0000    YZZ      -0.0000
       ZZZ      -2.4300
    Hexadecapole Moments (Debye-Ang^3)
      XXXX   -2501.1161   XXXY     -15.3912   XXYY    -490.6742
      XYYY      26.7376   YYYY    -227.1547   XXXZ      -0.0000
      XXYZ       0.0000   XYYZ      -0.0000   YYYZ       0.0000
      XXZZ    -503.8599   XYZZ      -1.9868   YYZZ    -142.8213
      XZZZ       0.0000   YZZZ       0.0000   ZZZZ    -625.2892
 -----------------------------------------------------------------
Archival summary:
1\1\nid01047\OPT\ProcedureUnspecified\BasisUnspecified\286(1-,2)\TueSep623:49:032016TueSep623:49:032016\0\\#,OPT,ProcedureUnspecified,BasisUnspecified,\\-1,2\S\C,1,1.76237\H,2,1.08142,1,120.415\C,2,1.38493,1,110.701,3,-174.391,0\H,4,1.08755,2,122.607,1,178.168,0\C,4,1.41117,2,114.253,1,1.43353,0\H,6,1.08544,4,123.838,2,174.403,0\C,6,1.41147,4,114.697,2,-3.65404,0\C,8,1.42335,6,128.703,4,170.005,0\C,9,1.41147,8,128.703,6,60,0\H,10,1.08544,9,121.436,8,-8.10342,0\C,10,1.41117,9,114.697,8,170.005,0\H,12,1.08755,10,123.054,9,179.628,0\C,12,1.38493,10,114.253,9,-3.65404,0\H,14,1.08142,12,128.6,10,-172.375,0\S,14,1.76237,12,110.701,10,1.43353,0\\\@

 Total job time:  156.11s(wall), 175.05s(cpu) 
 Tue Sep  6 23:49:03 2016

        *************************************************************
        *                                                           *
        *  Thank you very much for using Q-Chem.  Have a nice day.  *
        *                                                           *
        *************************************************************


0 sent ACK to 0 
now end server 0 ... 
