srun -N 1 --ntasks-per-node 16 --nodelist nid01047 /global/project/projectdirs/jcesr/qchem/qc44/cnl_qc441/dist/exe/qcprog.cori.exe .pt_charged_dft_-120.0.in.13396.qcin.1 /dev/shm/eg_qchem/qchem13396/
Process 1 of 16 is on nid01047 - thread support 0
Process 2 of 16 is on nid01047 - thread support 0
Process 3 of 16 is on nid01047 - thread support 0
Process 4 of 16 is on nid01047 - thread support 0
Process 6 of 16 is on nid01047 - thread support 0
Process 0 of 16 is on nid01047 - thread support 0
Process 15 of 16 is on nid01047 - thread support 0
Process 5 of 16 is on nid01047 - thread support 0
initial socket setup ...start
initial socket setup ...done 
now start server 0 ... 
nid01047 10.128.4
Q-Chem Developer Version! Running on 10.128.4.*
                  Welcome to Q-Chem
     A Quantum Leap Into The Future Of Chemistry


 Q-Chem 4.4, Q-Chem, Inc., Pleasanton, CA (2016)

 Y. Shao,  Z. Gan,  E. Epifanovsky,  A. T. B. Gilbert,  M. Wormit,  
 J. Kussmann,  A. W. Lange,  A. Behn,  J. Deng,  X. Feng,  D. Ghosh,  
 M. Goldey,  P. R. Horn,  L. D. Jacobson,  I. Kaliman,  F.Rob,  
 R. Z. Khaliullin,  T. Kus,  A. Landau,  J. Liu,  E. I. Proynov,  Y. M. Rhee,  
 R. M. Richard,  M. A. Rohrdanz,  R. P. Steele,  E. J. Sundstrom,  
 H. L. Woodcock III,  P. M. Zimmerman,  D. Zuev,  B. Albrecht,  E. Alguire,  
 B. Austin,  S. A. Baeppler,  G. J. O. Beran,  Y. A. Bernard,  E. Berquist,  
 K. Brandhorst,  K. B. Bravaya,  S. T. Brown,  D. Casanova,  C.-M. Chang,  
 Y. Chen,  S. H. Chien,  K. D. Closser,  M. P. Coons,  D. L. Crittenden,  
 S. Dasgupta,  M. Diedenhofen,  R. A. DiStasio Jr.,  H. Do,  A. D. Dutoi,  
 R. G. Edgar,  P.-T. Fang,  S. Fatehi,  Q. Feng,  L. Fusti-Molnar,  
 A. Ghysels,  A. Golubeva-Zadorozhnaya,  J. Gomes,  A. Gunina,  
 M. W. D. Hanson-Heine,  P. H. P. Harbach,  A. W. Hauser,  E. G. Hohenstein,  
 Z. C. Holden,  K. Hui,  T.-C. Jagau,  H. Ji,  B. Kaduk,  K. Khistyaev,  
 Jaehoon Kim,  Jihan Kim,  R. A. King,  P. Klunzinger,  D. Kosenkov,  
 T. Kowalczyk,  C. M. Krauter,  A. Kunitsa,  K. U. Lao,  A. Laurent,  
 K. V. Lawler,  D. Lefrancois,  S. Lehtola,  S. V. Levchenko,  C. Y. Lin,  
 Y.-S. Lin,  F. Liu,  E. Livshits,  R. C. Lochan,  A. Luenser,  P. Manohar,  
 S. F. Manzer,  S.-P. Mao,  Y. Mao,  N. Mardirossian,  A. V. Marenich,  
 L. A. Martinez-Martinez,  S. A. Maurer,  N. J. Mayhall,  J.-M. Mewes,  
 A. F. Morrison,  K. Nanda,  C. M. Oana,  R. Olivares-Amaya,  D. P. O'Neill,  
 J. A. Parkhill,  T. M. Perrine,  R. Peverati,  P. A. Pieniazek,  F. Plasser,  
 A. Prociuk,  D. R. Rehn,  E. Rosta,  N. J. Russ,  N. Sergueev,  
 S. M. Sharada,  S. Sharma,  D. W. Small,  A. Sodt,  T. Stauch,  T. Stein,  
 D. Stuck,  Y.-C. Su,  A. J. W. Thom,  T. Tsuchimochi,  L. Vogt,  O. Vydrov,  
 T. Wang,  M. A. Watson,  J. Wenzel,  A. White,  C. F. Williams,  
 V. Vanovschi,  S. Yeganeh,  S. R. Yost,  Z.-Q. You,  I. Y. Zhang,  X. Zhang,  
 Y. Zhao,  B. R. Brooks,  G. K. L. Chan,  D. M. Chipman,  C. J. Cramer,  
 W. A. Goddard III,  M. S. Gordon,  W. J. Hehre,  A. Klamt,  
 H. F. Schaefer III,  M. W. Schmidt,  C. D. Sherrill,  D. G. Truhlar,  
 A. Warshel,  X. Xu,  A. Aspuru-Guzik,  R. Baer,  A. T. Bell,  N. A. Besley,  
 J.-D. Chai,  A. Dreuw,  B. D. Dunietz,  T. R. Furlani,  S. R. Gwaltney,  
 C.-P. Hsu,  Y. Jung,  J. Kong,  D. S. Lambrecht,  W. Liang,  C. Ochsenfeld,  
 V. A. Rassolov,  L. V. Slipchenko,  J. E. Subotnik,  T. Van Voorhis,  
 J. M. Herbert,  A. I. Krylov,  P. M. W. Gill,  M. Head-Gordon

 Contributors to earlier versions of Q-Chem not listed above: 
 R. D. Adamson,  J. Baker,  E. F. C. Byrd,  A. K. Chakraborty,  C.-L. Cheng,  
 H. Dachsel,  R. J. Doerksen,  G. Hawkins,  A. Heyden,  S. Hirata,  
 G. Kedziora,  F. J. Keil,  C. Kelley,  P. P. Korambath,  W. Kurlancheek,  
 A. M. Lee,  M. S. Lee,  D. Liotard,  I. Lotan,  P. E. Maslen,  N. Nair,  
 D. Neuhauser,  R. Olson,  B. Peters,  J. Ritchie,  N. E. Schultz,  
 N. Shenvi,  A. C. Simmonett,  K. S. Thanthiriwatte,  Q. Wu,  W. Zhang

 Please cite Q-Chem as follows:
 Y. Shao et al., Mol. Phys. 113, 184-215 (2015)
 DOI: 10.1080/00268976.2014.952696

 Q-Chem 4.4.1 for Intel X86 EM64T Linux

 Parts of Q-Chem use Armadillo 5.200.1 (Boston Tea Smuggler).
 http://arma.sourceforge.net/

 Q-Chem begins on Tue Sep  6 22:59:02 2016  

Host: nid01047
0

     Scratch files written to /dev/shm/eg_qchem/qchem13396.0//
 Parallel job on  16  processors

Checking the input file for inconsistencies... 	...done.

--------------------------------------------------------------
User input:
--------------------------------------------------------------
$comment
<SCF Fix Strategy>{
    "current_method_id": 6, 
    "methods": [
        "increase_iter", 
        "diis_gdm", 
        "gwh", 
        "rca", 
        "gdm", 
        "core+gdm", 
        "fon"
    ], 
    "version": 2.0
}</SCF Fix Strategy>
$end


$molecule
 -1  2
 S           1.83794975       -1.27576249       -0.14871336
 C           3.23937819       -0.19806434       -0.14823333
 C           2.83626844        1.12431397       -0.14890172
 C           1.43724334        1.31134696       -0.14931220
 C           0.69606563        0.10654716       -0.14908151
 H           0.95807640        2.28459073       -0.14860036
 C          -0.69610330       -0.10652413       -0.14907621
 S          -1.72152830        0.51482929       -1.48215645
 C          -1.51891219       -0.77793717        0.78530971
 C          -3.18760991       -0.14041818       -0.74277113
 C          -2.88797550       -0.78667773        0.44202850
 H          -3.64964099       -1.26173678        1.05598942
 H           4.24016475       -0.60708034       -0.14954918
 H           3.54430111        1.94981573       -0.14910914
 H          -4.14615896       -0.00738652       -1.22480419
 H          -1.11814854       -1.23888564        1.68181398
$end


$rem
          jobtype = opt
         exchange = b3lyp
            basis = 6-31++g**
     fon_e_thresh = 6
         fon_norb = 9
        fon_t_end = 300
      fon_t_start = 300
   max_scf_cycles = 200
       mem_static = 100
        mem_total = 1500
      occupations = 2
    scf_algorithm = diis
  scf_convergence = 7
        scf_guess = sad
           thresh = 14
$end


$opt
CONSTRAINT
tors 4 5 7 9 -120.0
ENDCONSTRAINT
$end

--------------------------------------------------------------
 Atom   8: ( -1.7957775800,  1.0902872749, -0.5846584241)
         ->( -1.7957775069,  1.0902872921, -0.5846583785)
 Atom  10: ( -3.2242876773,  0.1404016863, -0.1574448288)
         ->( -3.2242876540,  0.1404016420, -0.1574450632)
 Atom  11: ( -2.8605095903, -1.0047382189,  0.5262966793)
         ->( -2.8605096654, -1.0047381216,  0.5262967073)
 Atom   9: ( -1.4709386795, -1.1535639028,  0.7242773175)
         ->( -1.4709387670, -1.1535639431,  0.7242773414)
 Atom   7: ( -0.6971321664, -0.0994492377,  0.1848769649)
         ->( -0.6971321754, -0.0994493532,  0.1848769344)
 Atom  16: ( -1.0213362710, -1.9939596257,  1.2423483594)
         ->( -1.0213364023, -1.9939597236,  1.2423483257)
 Atom  14: (  3.5903116209,  1.7290015644,  0.8806906008)
         ->(  3.5903114513,  1.7290018040,  0.8806904346)
 Atom  15: ( -4.2102463589,  0.4851633071, -0.4365406506)
         ->( -4.2102463379,  0.4851635076, -0.4365405455)
 ----------------------------------------------------------------
             Standard Nuclear Orientation (Angstroms)
    I     Atom           X                Y                Z
 ----------------------------------------------------------------
    1      S       1.7957775069    -1.0902872921    -0.5846583785
    2      C       3.2242876540    -0.1404016420    -0.1574450632
    3      C       2.8605096654     1.0047381216     0.5262967073
    4      C       1.4709387670     1.1535639431     0.7242773414
    5      C       0.6971321754     0.0994493532     0.1848769344
    6      H       1.0213364023     1.9939597236     1.2423483257
    7      C      -0.6971321754    -0.0994493532     0.1848769344
    8      S      -1.7957775069     1.0902872921    -0.5846583785
    9      C      -1.4709387670    -1.1535639431     0.7242773414
   10      C      -3.2242876540     0.1404016420    -0.1574450632
   11      C      -2.8605096654    -1.0047381216     0.5262967073
   12      H      -3.5903114513    -1.7290018040     0.8806904346
   13      H       4.2102463379    -0.4851635076    -0.4365405455
   14      H       3.5903114513     1.7290018040     0.8806904346
   15      H      -4.2102463379     0.4851635076    -0.4365405455
   16      H      -1.0213364023    -1.9939597236     1.2423483257
 ----------------------------------------------------------------
 Molecular Point Group                 C2    NOp =  2
 Largest Abelian Subgroup              C2    NOp =  2
 Nuclear Repulsion Energy =   622.8113770293 hartrees
 There are       44 alpha and       43 beta electrons
 Requested basis set is 6-31++G(d,p)
 There are 76 shells and 234 basis functions

 Total QAlloc Memory Limit   1500 MB
 Mega-Array Size        98 MB
 MEM_STATIC part       100 MB
 A cutoff of  1.0D-14 yielded   2602 shell pairs
 There are     25490 function pairs
 
 -------------------------------------------------------
 OpenMP Integral Computing Module                       
 Release: version 1.0, May 2013, Q-Chem Inc. Pittsburgh 
 -------------------------------------------------------
 Integral Job Info:
 Integral job number is                      11
 Integral operator is                         1
 short-range coefficients                     0
 long-range coefficients              100000000
 Omega coefficients                           0
 if combine SR and LR in K                    0
 Integral screening is                        0
 Integral computing path is                   2
 max size of driver memory is            800000
 size of driver memory is                593474
 size of scratch memory is             15166112
 max col of scratch BK array               1296
 max len of scratch array in speh3          155
 max len of scratch index in speh4           18
 max int batch size is                      520
 min int batch size is                       52
 fixed nKL is                                52
 max L of basis functions is                  2
 order of int derivative is                   0
 number of shells is                         76
 number of basis is                         234
 number of cartesian basis is               234
 number of contracted shell pairs          2602
 number of primitive shell pairs           8592
 maxK2 (contraction) of shell pair           36
 max number of K2 of shell pair               1
 max number of CS2 of shell pair            258
 max number of PS2 of shell pair           1536
 mem total for path MDJ                   51576
 -------------------------------------------------------
 Smallest overlap matrix eigenvalue = 9.33E-07
 Linear dependence detected in AO basis
 Number of orthogonalized atomic orbitals = 233
 Maximum deviation from orthogonality = 1.953E-11

 Scale SEOQF with 1.000000e-01/1.000000e-01/1.000000e-01

 Standard Electronic Orientation quadrupole field applied
 Nucleus-field energy     =     0.0000000180 hartrees
 Guess from superposition of atomic densities
 Warning:  Energy on first SCF cycle will be non-variational

-------------------------------------------------
Fractional occupation number algorithm turned on.
-------------------------------------------------

Initial Temperature =    300.000 K
Final Temperature =    300.000 K
-------------------------------------------------

 An unrestricted hybrid HF-DFT SCF calculation will be
 performed using Pulay DIIS extrapolation
 Exchange:     0.2000 Hartree-Fock + 0.0800 Slater + 0.7200 B88
 Correlation:  0.1900 VWN1RPA + 0.8100 LYP
 Using SG-1 standard quadrature grid
 SCF converges when DIIS error is below 1.0E-07
 Inaccurate integrated density:
   Number of electrons =    87
   Numerical integral  =    86.000117260971
   Relative error      =    -1.1492905046 %

---- Fractional Occupation Number Information ----
Temperature =    300.000 K
Fermi level =  -0.286602 Hartree
HOMO-LUMO gap =   0.021874 Hartree
Number of active orbitals = 18
Number of active electrons = 9
EMax =   4.29e-02
thresh =   1.00e-06
Generating Pseudo-Fermi distribution of occupation numbers.
--
# Rescaled active electrons =      9.000
Writing occupation numbers to disk ...
---- Fractional Occupation Number Information End ----


---- Fractional Occupation Number Information ----
Temperature =    300.000 K
Fermi level =  -0.299330 Hartree
HOMO-LUMO gap =   0.003582 Hartree
Number of active orbitals = 18
Number of active electrons = 9
EMax =   4.29e-02
thresh =   1.00e-06
Generating Pseudo-Fermi distribution of occupation numbers.
--
# Rescaled active electrons =      9.000
Writing occupation numbers to disk ...
---- Fractional Occupation Number Information End ----

 ---------------------------------------
  Cycle       Energy         DIIS Error
 ---------------------------------------
    1   -1106.9915141059      4.29E-02

---- Fractional Occupation Number Information ----
Temperature =    300.000 K
Fermi level =  -0.401614 Hartree
HOMO-LUMO gap =   0.023419 Hartree
Number of active orbitals = 18
Number of active electrons = 9
EMax =   2.67e-02
thresh =   1.00e-06
Generating Pseudo-Fermi distribution of occupation numbers.
--
# Rescaled active electrons =      9.000
Writing occupation numbers to disk ...
---- Fractional Occupation Number Information End ----


---- Fractional Occupation Number Information ----
Temperature =    300.000 K
Fermi level =  -0.428095 Hartree
HOMO-LUMO gap =   0.062274 Hartree
Number of active orbitals = 18
Number of active electrons = 9
EMax =   2.67e-02
thresh =   1.00e-06
Generating Pseudo-Fermi distribution of occupation numbers.
--
# Rescaled active electrons =      9.000
Writing occupation numbers to disk ...
---- Fractional Occupation Number Information End ----

    2   -1098.6630499339      2.67E-02

---- Fractional Occupation Number Information ----
Temperature =    300.000 K
Fermi level =  -0.634393 Hartree
HOMO-LUMO gap =   0.015832 Hartree
Number of active orbitals = 18
Number of active electrons = 9
EMax =   1.39e-02
thresh =   1.00e-06
Generating Pseudo-Fermi distribution of occupation numbers.
--
# Rescaled active electrons =      9.000
Writing occupation numbers to disk ...
---- Fractional Occupation Number Information End ----


---- Fractional Occupation Number Information ----
Temperature =    300.000 K
Fermi level =  -0.619333 Hartree
HOMO-LUMO gap =   0.008468 Hartree
Number of active orbitals = 18
Number of active electrons = 9
EMax =   1.39e-02
thresh =   1.00e-06
Generating Pseudo-Fermi distribution of occupation numbers.
--
# Rescaled active electrons =      9.000
Writing occupation numbers to disk ...
---- Fractional Occupation Number Information End ----

    3   -1118.9736388688      1.39E-02

---- Fractional Occupation Number Information ----
Temperature =    300.000 K
Fermi level =  -0.460447 Hartree
HOMO-LUMO gap =   0.006701 Hartree
Number of active orbitals = 18
Number of active electrons = 9
EMax =   1.49e-02
thresh =   1.00e-06
Generating Pseudo-Fermi distribution of occupation numbers.
--
# Rescaled active electrons =      9.000
Writing occupation numbers to disk ...
---- Fractional Occupation Number Information End ----


---- Fractional Occupation Number Information ----
Temperature =    300.000 K
Fermi level =  -0.456730 Hartree
HOMO-LUMO gap =   0.009495 Hartree
Number of active orbitals = 18
Number of active electrons = 9
EMax =   1.49e-02
thresh =   1.00e-06
Generating Pseudo-Fermi distribution of occupation numbers.
--
# Rescaled active electrons =      9.000
Writing occupation numbers to disk ...
---- Fractional Occupation Number Information End ----

    4   -1104.3724880522      1.49E-02

---- Fractional Occupation Number Information ----
Temperature =    300.000 K
Fermi level =  -0.428391 Hartree
HOMO-LUMO gap =   0.000631 Hartree
Number of active orbitals = 18
Number of active electrons = 9
EMax =   4.56e-02
thresh =   1.00e-06
Generating Pseudo-Fermi distribution of occupation numbers.
--
# Rescaled active electrons =      9.000
Writing occupation numbers to disk ...
---- Fractional Occupation Number Information End ----


---- Fractional Occupation Number Information ----
Temperature =    300.000 K
Fermi level =  -0.424311 Hartree
HOMO-LUMO gap =   0.002219 Hartree
Number of active orbitals = 18
Number of active electrons = 9
EMax =   4.56e-02
thresh =   1.00e-06
Generating Pseudo-Fermi distribution of occupation numbers.
--
# Rescaled active electrons =      9.000
Writing occupation numbers to disk ...
---- Fractional Occupation Number Information End ----

    5   -1145.7918434237      4.56E-02

---- Fractional Occupation Number Information ----
Temperature =    300.000 K
Fermi level =  -0.442004 Hartree
HOMO-LUMO gap =   0.022505 Hartree
Number of active orbitals = 18
Number of active electrons = 9
EMax =   4.05e-02
thresh =   1.00e-06
Generating Pseudo-Fermi distribution of occupation numbers.
--
# Rescaled active electrons =      9.000
Writing occupation numbers to disk ...
---- Fractional Occupation Number Information End ----


---- Fractional Occupation Number Information ----
Temperature =    300.000 K
Fermi level =  -0.428053 Hartree
HOMO-LUMO gap =   0.013364 Hartree
Number of active orbitals = 18
Number of active electrons = 9
EMax =   4.05e-02
thresh =   1.00e-06
Generating Pseudo-Fermi distribution of occupation numbers.
--
# Rescaled active electrons =      9.000
Writing occupation numbers to disk ...
---- Fractional Occupation Number Information End ----

    6   -1146.9556303590      4.05E-02

---- Fractional Occupation Number Information ----
Temperature =    300.000 K
Fermi level =  -0.482723 Hartree
HOMO-LUMO gap =   0.016535 Hartree
Number of active orbitals = 18
Number of active electrons = 9
EMax =   3.54e-02
thresh =   1.00e-06
Generating Pseudo-Fermi distribution of occupation numbers.
--
# Rescaled active electrons =      9.000
Writing occupation numbers to disk ...
---- Fractional Occupation Number Information End ----


---- Fractional Occupation Number Information ----
Temperature =    300.000 K
Fermi level =  -0.476065 Hartree
HOMO-LUMO gap =   0.026613 Hartree
Number of active orbitals = 18
Number of active electrons = 9
EMax =   3.54e-02
thresh =   1.00e-06
Generating Pseudo-Fermi distribution of occupation numbers.
--
# Rescaled active electrons =      9.000
Writing occupation numbers to disk ...
---- Fractional Occupation Number Information End ----

    7   -1146.1190169035      3.54E-02

---- Fractional Occupation Number Information ----
Temperature =    300.000 K
Fermi level =  -0.524339 Hartree
HOMO-LUMO gap =   0.008143 Hartree
Number of active orbitals = 18
Number of active electrons = 9
EMax =   9.01e-03
thresh =   1.00e-06
Generating Pseudo-Fermi distribution of occupation numbers.
--
# Rescaled active electrons =      9.000
Writing occupation numbers to disk ...
---- Fractional Occupation Number Information End ----


---- Fractional Occupation Number Information ----
Temperature =    300.000 K
Fermi level =  -0.500577 Hartree
HOMO-LUMO gap =   0.030154 Hartree
Number of active orbitals = 18
Number of active electrons = 9
EMax =   9.01e-03
thresh =   1.00e-06
Generating Pseudo-Fermi distribution of occupation numbers.
--
# Rescaled active electrons =      9.000
Writing occupation numbers to disk ...
---- Fractional Occupation Number Information End ----

    8   -1106.7419403777      9.01E-03

---- Fractional Occupation Number Information ----
Temperature =    300.000 K
Fermi level =  -0.501316 Hartree
HOMO-LUMO gap =   0.047659 Hartree
Number of active orbitals = 18
Number of active electrons = 9
EMax =   2.25e-02
thresh =   1.00e-06
Generating Pseudo-Fermi distribution of occupation numbers.
--
# Rescaled active electrons =      9.000
Writing occupation numbers to disk ...
---- Fractional Occupation Number Information End ----


---- Fractional Occupation Number Information ----
Temperature =    300.000 K
Fermi level =  -0.495447 Hartree
HOMO-LUMO gap =   0.003254 Hartree
Number of active orbitals = 18
Number of active electrons = 9
EMax =   2.25e-02
thresh =   1.00e-06
Generating Pseudo-Fermi distribution of occupation numbers.
--
# Rescaled active electrons =      9.000
Writing occupation numbers to disk ...
---- Fractional Occupation Number Information End ----

    9   -1156.8459235411      2.25E-02

---- Fractional Occupation Number Information ----
Temperature =    300.000 K
Fermi level =  -0.503963 Hartree
HOMO-LUMO gap =   0.047374 Hartree
Number of active orbitals = 18
Number of active electrons = 9
EMax =   1.38e-02
thresh =   1.00e-06
Generating Pseudo-Fermi distribution of occupation numbers.
--
# Rescaled active electrons =      9.000
Writing occupation numbers to disk ...
---- Fractional Occupation Number Information End ----


---- Fractional Occupation Number Information ----
Temperature =    300.000 K
Fermi level =  -0.499256 Hartree
HOMO-LUMO gap =   0.003057 Hartree
Number of active orbitals = 18
Number of active electrons = 9
EMax =   1.38e-02
thresh =   1.00e-06
Generating Pseudo-Fermi distribution of occupation numbers.
--
# Rescaled active electrons =      9.000
Writing occupation numbers to disk ...
---- Fractional Occupation Number Information End ----

   10   -1128.9775086378      1.38E-02

---- Fractional Occupation Number Information ----
Temperature =    300.000 K
Fermi level =  -0.462730 Hartree
HOMO-LUMO gap =   0.049132 Hartree
Number of active orbitals = 18
Number of active electrons = 9
EMax =   1.26e-02
thresh =   1.00e-06
Generating Pseudo-Fermi distribution of occupation numbers.
--
# Rescaled active electrons =      9.000
Writing occupation numbers to disk ...
---- Fractional Occupation Number Information End ----


---- Fractional Occupation Number Information ----
Temperature =    300.000 K
Fermi level =  -0.457101 Hartree
HOMO-LUMO gap =   0.004270 Hartree
Number of active orbitals = 18
Number of active electrons = 9
EMax =   1.26e-02
thresh =   1.00e-06
Generating Pseudo-Fermi distribution of occupation numbers.
--
# Rescaled active electrons =      9.000
Writing occupation numbers to disk ...
---- Fractional Occupation Number Information End ----

   11   -1133.6844976630      1.26E-02

---- Fractional Occupation Number Information ----
Temperature =    300.000 K
Fermi level =  -0.417770 Hartree
HOMO-LUMO gap =   0.055312 Hartree
Number of active orbitals = 18
Number of active electrons = 9
EMax =   1.06e-02
thresh =   1.00e-06
Generating Pseudo-Fermi distribution of occupation numbers.
--
# Rescaled active electrons =      9.000
Writing occupation numbers to disk ...
---- Fractional Occupation Number Information End ----


---- Fractional Occupation Number Information ----
Temperature =    300.000 K
Fermi level =  -0.407037 Hartree
HOMO-LUMO gap =   0.007925 Hartree
Number of active orbitals = 18
Number of active electrons = 9
EMax =   1.06e-02
thresh =   1.00e-06
Generating Pseudo-Fermi distribution of occupation numbers.
--
# Rescaled active electrons =      9.000
Writing occupation numbers to disk ...
---- Fractional Occupation Number Information End ----

   12   -1114.4966147241      1.06E-02

---- Fractional Occupation Number Information ----
Temperature =    300.000 K
Fermi level =  -0.381279 Hartree
HOMO-LUMO gap =   0.062880 Hartree
Number of active orbitals = 18
Number of active electrons = 9
EMax =   5.54e-03
thresh =   1.00e-06
Generating Pseudo-Fermi distribution of occupation numbers.
--
# Rescaled active electrons =      9.000
Writing occupation numbers to disk ...
---- Fractional Occupation Number Information End ----


---- Fractional Occupation Number Information ----
Temperature =    300.000 K
Fermi level =  -0.377764 Hartree
HOMO-LUMO gap =   0.019477 Hartree
Number of active orbitals = 18
Number of active electrons = 9
EMax =   5.54e-03
thresh =   1.00e-06
Generating Pseudo-Fermi distribution of occupation numbers.
--
# Rescaled active electrons =      9.000
Writing occupation numbers to disk ...
---- Fractional Occupation Number Information End ----

   13   -1112.5010348617      5.54E-03

---- Fractional Occupation Number Information ----
Temperature =    300.000 K
Fermi level =  -0.352575 Hartree
HOMO-LUMO gap =   0.068014 Hartree
Number of active orbitals = 18
Number of active electrons = 9
EMax =   6.10e-03
thresh =   1.00e-06
Generating Pseudo-Fermi distribution of occupation numbers.
--
# Rescaled active electrons =      9.000
Writing occupation numbers to disk ...
---- Fractional Occupation Number Information End ----


---- Fractional Occupation Number Information ----
Temperature =    300.000 K
Fermi level =  -0.353936 Hartree
HOMO-LUMO gap =   0.023515 Hartree
Number of active orbitals = 18
Number of active electrons = 9
EMax =   6.10e-03
thresh =   1.00e-06
Generating Pseudo-Fermi distribution of occupation numbers.
--
# Rescaled active electrons =      9.000
Writing occupation numbers to disk ...
---- Fractional Occupation Number Information End ----

   14   -1108.5343461856      6.10E-03

---- Fractional Occupation Number Information ----
Temperature =    300.000 K
Fermi level =  -0.334152 Hartree
HOMO-LUMO gap =   0.070306 Hartree
Number of active orbitals = 18
Number of active electrons = 9
EMax =   5.00e-03
thresh =   1.00e-06
Generating Pseudo-Fermi distribution of occupation numbers.
--
# Rescaled active electrons =      9.000
Writing occupation numbers to disk ...
---- Fractional Occupation Number Information End ----


---- Fractional Occupation Number Information ----
Temperature =    300.000 K
Fermi level =  -0.332834 Hartree
HOMO-LUMO gap =   0.029397 Hartree
Number of active orbitals = 18
Number of active electrons = 9
EMax =   5.00e-03
thresh =   1.00e-06
Generating Pseudo-Fermi distribution of occupation numbers.
--
# Rescaled active electrons =      9.000
Writing occupation numbers to disk ...
---- Fractional Occupation Number Information End ----

   15   -1111.6122320631      5.00E-03

---- Fractional Occupation Number Information ----
Temperature =    300.000 K
Fermi level =  -0.318049 Hartree
HOMO-LUMO gap =   0.073576 Hartree
Number of active orbitals = 18
Number of active electrons = 9
EMax =   3.29e-03
thresh =   1.00e-06
Generating Pseudo-Fermi distribution of occupation numbers.
--
# Rescaled active electrons =      9.000
Writing occupation numbers to disk ...
---- Fractional Occupation Number Information End ----


---- Fractional Occupation Number Information ----
Temperature =    300.000 K
Fermi level =  -0.310288 Hartree
HOMO-LUMO gap =   0.028896 Hartree
Number of active orbitals = 18
Number of active electrons = 9
EMax =   3.29e-03
thresh =   1.00e-06
Generating Pseudo-Fermi distribution of occupation numbers.
--
# Rescaled active electrons =      9.000
Writing occupation numbers to disk ...
---- Fractional Occupation Number Information End ----

   16   -1115.4587298790      3.29E-03

---- Fractional Occupation Number Information ----
Temperature =    300.000 K
Fermi level =  -0.313696 Hartree
HOMO-LUMO gap =   0.073989 Hartree
Number of active orbitals = 18
Number of active electrons = 9
EMax =   4.58e-03
thresh =   1.00e-06
Generating Pseudo-Fermi distribution of occupation numbers.
--
# Rescaled active electrons =      9.000
Writing occupation numbers to disk ...
---- Fractional Occupation Number Information End ----


---- Fractional Occupation Number Information ----
Temperature =    300.000 K
Fermi level =  -0.310318 Hartree
HOMO-LUMO gap =   0.028827 Hartree
Number of active orbitals = 18
Number of active electrons = 9
EMax =   4.58e-03
thresh =   1.00e-06
Generating Pseudo-Fermi distribution of occupation numbers.
--
# Rescaled active electrons =      9.000
Writing occupation numbers to disk ...
---- Fractional Occupation Number Information End ----

   17   -1113.2559969633      4.58E-03

---- Fractional Occupation Number Information ----
Temperature =    300.000 K
Fermi level =  -0.302327 Hartree
HOMO-LUMO gap =   0.073615 Hartree
Number of active orbitals = 18
Number of active electrons = 9
EMax =   4.93e-03
thresh =   1.00e-06
Generating Pseudo-Fermi distribution of occupation numbers.
--
# Rescaled active electrons =      9.000
Writing occupation numbers to disk ...
---- Fractional Occupation Number Information End ----


---- Fractional Occupation Number Information ----
Temperature =    300.000 K
Fermi level =  -0.302836 Hartree
HOMO-LUMO gap =   0.030949 Hartree
Number of active orbitals = 18
Number of active electrons = 9
EMax =   4.93e-03
thresh =   1.00e-06
Generating Pseudo-Fermi distribution of occupation numbers.
--
# Rescaled active electrons =      9.000
Writing occupation numbers to disk ...
---- Fractional Occupation Number Information End ----

   18   -1112.6366730608      4.93E-03

---- Fractional Occupation Number Information ----
Temperature =    300.000 K
Fermi level =  -0.313022 Hartree
HOMO-LUMO gap =   0.073368 Hartree
Number of active orbitals = 18
Number of active electrons = 9
EMax =   5.47e-03
thresh =   1.00e-06
Generating Pseudo-Fermi distribution of occupation numbers.
--
# Rescaled active electrons =      9.000
Writing occupation numbers to disk ...
---- Fractional Occupation Number Information End ----


---- Fractional Occupation Number Information ----
Temperature =    300.000 K
Fermi level =  -0.309109 Hartree
HOMO-LUMO gap =   0.029129 Hartree
Number of active orbitals = 18
Number of active electrons = 9
EMax =   5.47e-03
thresh =   1.00e-06
Generating Pseudo-Fermi distribution of occupation numbers.
--
# Rescaled active electrons =      9.000
Writing occupation numbers to disk ...
---- Fractional Occupation Number Information End ----

   19   -1111.9448786915      5.47E-03

---- Fractional Occupation Number Information ----
Temperature =    300.000 K
Fermi level =  -0.313267 Hartree
HOMO-LUMO gap =   0.073467 Hartree
Number of active orbitals = 18
Number of active electrons = 9
EMax =   5.05e-03
thresh =   1.00e-06
Generating Pseudo-Fermi distribution of occupation numbers.
--
# Rescaled active electrons =      9.000
Writing occupation numbers to disk ...
---- Fractional Occupation Number Information End ----


---- Fractional Occupation Number Information ----
Temperature =    300.000 K
Fermi level =  -0.309321 Hartree
HOMO-LUMO gap =   0.028959 Hartree
Number of active orbitals = 18
Number of active electrons = 9
EMax =   5.05e-03
thresh =   1.00e-06
Generating Pseudo-Fermi distribution of occupation numbers.
--
# Rescaled active electrons =      9.000
Writing occupation numbers to disk ...
---- Fractional Occupation Number Information End ----

   20   -1111.0205009978      5.05E-03

---- Fractional Occupation Number Information ----
Temperature =    300.000 K
Fermi level =  -0.313131 Hartree
HOMO-LUMO gap =   0.073157 Hartree
Number of active orbitals = 18
Number of active electrons = 9
EMax =   5.08e-03
thresh =   1.00e-06
Generating Pseudo-Fermi distribution of occupation numbers.
--
# Rescaled active electrons =      9.000
Writing occupation numbers to disk ...
---- Fractional Occupation Number Information End ----


---- Fractional Occupation Number Information ----
Temperature =    300.000 K
Fermi level =  -0.308810 Hartree
HOMO-LUMO gap =   0.029595 Hartree
Number of active orbitals = 18
Number of active electrons = 9
EMax =   5.08e-03
thresh =   1.00e-06
Generating Pseudo-Fermi distribution of occupation numbers.
--
# Rescaled active electrons =      9.000
Writing occupation numbers to disk ...
---- Fractional Occupation Number Information End ----

   21   -1110.7957001658      5.08E-03

---- Fractional Occupation Number Information ----
Temperature =    300.000 K
Fermi level =  -0.309310 Hartree
HOMO-LUMO gap =   0.073921 Hartree
Number of active orbitals = 18
Number of active electrons = 9
EMax =   4.98e-03
thresh =   1.00e-06
Generating Pseudo-Fermi distribution of occupation numbers.
--
# Rescaled active electrons =      9.000
Writing occupation numbers to disk ...
---- Fractional Occupation Number Information End ----


---- Fractional Occupation Number Information ----
Temperature =    300.000 K
Fermi level =  -0.304861 Hartree
HOMO-LUMO gap =   0.030166 Hartree
Number of active orbitals = 18
Number of active electrons = 9
EMax =   4.98e-03
thresh =   1.00e-06
Generating Pseudo-Fermi distribution of occupation numbers.
--
# Rescaled active electrons =      9.000
Writing occupation numbers to disk ...
---- Fractional Occupation Number Information End ----

   22   -1111.0915945013      4.98E-03

---- Fractional Occupation Number Information ----
Temperature =    300.000 K
Fermi level =  -0.320769 Hartree
HOMO-LUMO gap =   0.073128 Hartree
Number of active orbitals = 18
Number of active electrons = 9
EMax =   5.10e-03
thresh =   1.00e-06
Generating Pseudo-Fermi distribution of occupation numbers.
--
# Rescaled active electrons =      9.000
Writing occupation numbers to disk ...
---- Fractional Occupation Number Information End ----


---- Fractional Occupation Number Information ----
Temperature =    300.000 K
Fermi level =  -0.314635 Hartree
HOMO-LUMO gap =   0.030720 Hartree
Number of active orbitals = 18
Number of active electrons = 9
EMax =   5.10e-03
thresh =   1.00e-06
Generating Pseudo-Fermi distribution of occupation numbers.
--
# Rescaled active electrons =      9.000
Writing occupation numbers to disk ...
---- Fractional Occupation Number Information End ----

   23   -1110.6052581471      5.10E-03

---- Fractional Occupation Number Information ----
Temperature =    300.000 K
Fermi level =  -0.315947 Hartree
HOMO-LUMO gap =   0.072792 Hartree
Number of active orbitals = 18
Number of active electrons = 9
EMax =   6.92e-03
thresh =   1.00e-06
Generating Pseudo-Fermi distribution of occupation numbers.
--
# Rescaled active electrons =      9.000
Writing occupation numbers to disk ...
---- Fractional Occupation Number Information End ----


---- Fractional Occupation Number Information ----
Temperature =    300.000 K
Fermi level =  -0.311233 Hartree
HOMO-LUMO gap =   0.030900 Hartree
Number of active orbitals = 18
Number of active electrons = 9
EMax =   6.92e-03
thresh =   1.00e-06
Generating Pseudo-Fermi distribution of occupation numbers.
--
# Rescaled active electrons =      9.000
Writing occupation numbers to disk ...
---- Fractional Occupation Number Information End ----

   24   -1111.7555895429      6.92E-03

---- Fractional Occupation Number Information ----
Temperature =    300.000 K
Fermi level =  -0.316370 Hartree
HOMO-LUMO gap =   0.071376 Hartree
Number of active orbitals = 18
Number of active electrons = 9
EMax =   6.35e-03
thresh =   1.00e-06
Generating Pseudo-Fermi distribution of occupation numbers.
--
# Rescaled active electrons =      9.000
Writing occupation numbers to disk ...
---- Fractional Occupation Number Information End ----


---- Fractional Occupation Number Information ----
Temperature =    300.000 K
Fermi level =  -0.311259 Hartree
HOMO-LUMO gap =   0.028734 Hartree
Number of active orbitals = 18
Number of active electrons = 9
EMax =   6.35e-03
thresh =   1.00e-06
Generating Pseudo-Fermi distribution of occupation numbers.
--
# Rescaled active electrons =      9.000
Writing occupation numbers to disk ...
---- Fractional Occupation Number Information End ----

   25   -1112.7288760154      6.35E-03

---- Fractional Occupation Number Information ----
Temperature =    300.000 K
Fermi level =  -0.315435 Hartree
HOMO-LUMO gap =   0.071665 Hartree
Number of active orbitals = 18
Number of active electrons = 9
EMax =   4.55e-03
thresh =   1.00e-06
Generating Pseudo-Fermi distribution of occupation numbers.
--
# Rescaled active electrons =      9.000
Writing occupation numbers to disk ...
---- Fractional Occupation Number Information End ----


---- Fractional Occupation Number Information ----
Temperature =    300.000 K
Fermi level =  -0.310990 Hartree
HOMO-LUMO gap =   0.028152 Hartree
Number of active orbitals = 18
Number of active electrons = 9
EMax =   4.55e-03
thresh =   1.00e-06
Generating Pseudo-Fermi distribution of occupation numbers.
--
# Rescaled active electrons =      9.000
Writing occupation numbers to disk ...
---- Fractional Occupation Number Information End ----

   26   -1112.1368071975      4.55E-03

---- Fractional Occupation Number Information ----
Temperature =    300.000 K
Fermi level =  -0.324217 Hartree
HOMO-LUMO gap =   0.056142 Hartree
Number of active orbitals = 18
Number of active electrons = 9
EMax =   4.26e-03
thresh =   1.00e-06
Generating Pseudo-Fermi distribution of occupation numbers.
--
# Rescaled active electrons =      9.000
Writing occupation numbers to disk ...
---- Fractional Occupation Number Information End ----


---- Fractional Occupation Number Information ----
Temperature =    300.000 K
Fermi level =  -0.313368 Hartree
HOMO-LUMO gap =   0.023199 Hartree
Number of active orbitals = 18
Number of active electrons = 9
EMax =   4.26e-03
thresh =   1.00e-06
Generating Pseudo-Fermi distribution of occupation numbers.
--
# Rescaled active electrons =      9.000
Writing occupation numbers to disk ...
---- Fractional Occupation Number Information End ----

   27   -1113.4230480443      4.26E-03

---- Fractional Occupation Number Information ----
Temperature =    300.000 K
Fermi level =  -0.318762 Hartree
HOMO-LUMO gap =   0.071175 Hartree
Number of active orbitals = 18
Number of active electrons = 9
EMax =   2.99e-03
thresh =   1.00e-06
Generating Pseudo-Fermi distribution of occupation numbers.
--
# Rescaled active electrons =      9.000
Writing occupation numbers to disk ...
---- Fractional Occupation Number Information End ----


---- Fractional Occupation Number Information ----
Temperature =    300.000 K
Fermi level =  -0.310932 Hartree
HOMO-LUMO gap =   0.028302 Hartree
Number of active orbitals = 18
Number of active electrons = 9
EMax =   2.99e-03
thresh =   1.00e-06
Generating Pseudo-Fermi distribution of occupation numbers.
--
# Rescaled active electrons =      9.000
Writing occupation numbers to disk ...
---- Fractional Occupation Number Information End ----

   28   -1112.1980304932      2.99E-03

---- Fractional Occupation Number Information ----
Temperature =    300.000 K
Fermi level =  -0.320899 Hartree
HOMO-LUMO gap =   0.071201 Hartree
Number of active orbitals = 18
Number of active electrons = 9
EMax =   4.56e-03
thresh =   1.00e-06
Generating Pseudo-Fermi distribution of occupation numbers.
--
# Rescaled active electrons =      9.000
Writing occupation numbers to disk ...
---- Fractional Occupation Number Information End ----


---- Fractional Occupation Number Information ----
Temperature =    300.000 K
Fermi level =  -0.312037 Hartree
HOMO-LUMO gap =   0.028341 Hartree
Number of active orbitals = 18
Number of active electrons = 9
EMax =   4.56e-03
thresh =   1.00e-06
Generating Pseudo-Fermi distribution of occupation numbers.
--
# Rescaled active electrons =      9.000
Writing occupation numbers to disk ...
---- Fractional Occupation Number Information End ----

   29   -1109.7340686026      4.56E-03

---- Fractional Occupation Number Information ----
Temperature =    300.000 K
Fermi level =  -0.326492 Hartree
HOMO-LUMO gap =   0.052676 Hartree
Number of active orbitals = 18
Number of active electrons = 9
EMax =   4.09e-03
thresh =   1.00e-06
Generating Pseudo-Fermi distribution of occupation numbers.
--
# Rescaled active electrons =      9.000
Writing occupation numbers to disk ...
---- Fractional Occupation Number Information End ----


---- Fractional Occupation Number Information ----
Temperature =    300.000 K
Fermi level =  -0.315347 Hartree
HOMO-LUMO gap =   0.018701 Hartree
Number of active orbitals = 18
Number of active electrons = 9
EMax =   4.09e-03
thresh =   1.00e-06
Generating Pseudo-Fermi distribution of occupation numbers.
--
# Rescaled active electrons =      9.000
Writing occupation numbers to disk ...
---- Fractional Occupation Number Information End ----

   30   -1111.4339905779      4.09E-03

---- Fractional Occupation Number Information ----
Temperature =    300.000 K
Fermi level =  -0.316313 Hartree
HOMO-LUMO gap =   0.071532 Hartree
Number of active orbitals = 18
Number of active electrons = 9
EMax =   4.10e-03
thresh =   1.00e-06
Generating Pseudo-Fermi distribution of occupation numbers.
--
# Rescaled active electrons =      9.000
Writing occupation numbers to disk ...
---- Fractional Occupation Number Information End ----


---- Fractional Occupation Number Information ----
Temperature =    300.000 K
Fermi level =  -0.310186 Hartree
HOMO-LUMO gap =   0.028037 Hartree
Number of active orbitals = 18
Number of active electrons = 9
EMax =   4.10e-03
thresh =   1.00e-06
Generating Pseudo-Fermi distribution of occupation numbers.
--
# Rescaled active electrons =      9.000
Writing occupation numbers to disk ...
---- Fractional Occupation Number Information End ----

   31   -1112.7443231854      4.10E-03

---- Fractional Occupation Number Information ----
Temperature =    300.000 K
Fermi level =  -0.315496 Hartree
HOMO-LUMO gap =   0.071565 Hartree
Number of active orbitals = 18
Number of active electrons = 9
EMax =   4.17e-03
thresh =   1.00e-06
Generating Pseudo-Fermi distribution of occupation numbers.
--
# Rescaled active electrons =      9.000
Writing occupation numbers to disk ...
---- Fractional Occupation Number Information End ----


---- Fractional Occupation Number Information ----
Temperature =    300.000 K
Fermi level =  -0.310646 Hartree
HOMO-LUMO gap =   0.028022 Hartree
Number of active orbitals = 18
Number of active electrons = 9
EMax =   4.17e-03
thresh =   1.00e-06
Generating Pseudo-Fermi distribution of occupation numbers.
--
# Rescaled active electrons =      9.000
Writing occupation numbers to disk ...
---- Fractional Occupation Number Information End ----

   32   -1112.5392574214      4.17E-03

---- Fractional Occupation Number Information ----
Temperature =    300.000 K
Fermi level =  -0.316899 Hartree
HOMO-LUMO gap =   0.071225 Hartree
Number of active orbitals = 18
Number of active electrons = 9
EMax =   4.15e-03
thresh =   1.00e-06
Generating Pseudo-Fermi distribution of occupation numbers.
--
# Rescaled active electrons =      9.000
Writing occupation numbers to disk ...
---- Fractional Occupation Number Information End ----


---- Fractional Occupation Number Information ----
Temperature =    300.000 K
Fermi level =  -0.310124 Hartree
HOMO-LUMO gap =   0.028078 Hartree
Number of active orbitals = 18
Number of active electrons = 9
EMax =   4.15e-03
thresh =   1.00e-06
Generating Pseudo-Fermi distribution of occupation numbers.
--
# Rescaled active electrons =      9.000
Writing occupation numbers to disk ...
---- Fractional Occupation Number Information End ----

   33   -1114.4256320707      4.15E-03

---- Fractional Occupation Number Information ----
Temperature =    300.000 K
Fermi level =  -0.317145 Hartree
HOMO-LUMO gap =   0.071252 Hartree
Number of active orbitals = 18
Number of active electrons = 9
EMax =   6.17e-03
thresh =   1.00e-06
Generating Pseudo-Fermi distribution of occupation numbers.
--
# Rescaled active electrons =      9.000
Writing occupation numbers to disk ...
---- Fractional Occupation Number Information End ----


---- Fractional Occupation Number Information ----
Temperature =    300.000 K
Fermi level =  -0.309883 Hartree
HOMO-LUMO gap =   0.028118 Hartree
Number of active orbitals = 18
Number of active electrons = 9
EMax =   6.17e-03
thresh =   1.00e-06
Generating Pseudo-Fermi distribution of occupation numbers.
--
# Rescaled active electrons =      9.000
Writing occupation numbers to disk ...
---- Fractional Occupation Number Information End ----

   34   -1109.6766727331      6.17E-03

---- Fractional Occupation Number Information ----
Temperature =    300.000 K
Fermi level =  -0.317426 Hartree
HOMO-LUMO gap =   0.071227 Hartree
Number of active orbitals = 18
Number of active electrons = 9
EMax =   6.10e-03
thresh =   1.00e-06
Generating Pseudo-Fermi distribution of occupation numbers.
--
# Rescaled active electrons =      9.000
Writing occupation numbers to disk ...
---- Fractional Occupation Number Information End ----


---- Fractional Occupation Number Information ----
Temperature =    300.000 K
Fermi level =  -0.309828 Hartree
HOMO-LUMO gap =   0.028111 Hartree
Number of active orbitals = 18
Number of active electrons = 9
EMax =   6.10e-03
thresh =   1.00e-06
Generating Pseudo-Fermi distribution of occupation numbers.
--
# Rescaled active electrons =      9.000
Writing occupation numbers to disk ...
---- Fractional Occupation Number Information End ----

   35   -1109.8939483462      6.10E-03

---- Fractional Occupation Number Information ----
Temperature =    300.000 K
Fermi level =  -0.317450 Hartree
HOMO-LUMO gap =   0.071232 Hartree
Number of active orbitals = 18
Number of active electrons = 9
EMax =   6.32e-03
thresh =   1.00e-06
Generating Pseudo-Fermi distribution of occupation numbers.
--
# Rescaled active electrons =      9.000
Writing occupation numbers to disk ...
---- Fractional Occupation Number Information End ----


---- Fractional Occupation Number Information ----
Temperature =    300.000 K
Fermi level =  -0.309851 Hartree
HOMO-LUMO gap =   0.028111 Hartree
Number of active orbitals = 18
Number of active electrons = 9
EMax =   6.32e-03
thresh =   1.00e-06
Generating Pseudo-Fermi distribution of occupation numbers.
--
# Rescaled active electrons =      9.000
Writing occupation numbers to disk ...
---- Fractional Occupation Number Information End ----

   36   -1110.0327823947      6.32E-03

---- Fractional Occupation Number Information ----
Temperature =    300.000 K
Fermi level =  -0.316014 Hartree
HOMO-LUMO gap =   0.071625 Hartree
Number of active orbitals = 18
Number of active electrons = 9
EMax =   6.38e-03
thresh =   1.00e-06
Generating Pseudo-Fermi distribution of occupation numbers.
--
# Rescaled active electrons =      9.000
Writing occupation numbers to disk ...
---- Fractional Occupation Number Information End ----


---- Fractional Occupation Number Information ----
Temperature =    300.000 K
Fermi level =  -0.309563 Hartree
HOMO-LUMO gap =   0.028075 Hartree
Number of active orbitals = 18
Number of active electrons = 9
EMax =   6.38e-03
thresh =   1.00e-06
Generating Pseudo-Fermi distribution of occupation numbers.
--
# Rescaled active electrons =      9.000
Writing occupation numbers to disk ...
---- Fractional Occupation Number Information End ----

   37   -1110.0303576952      6.38E-03

---- Fractional Occupation Number Information ----
Temperature =    300.000 K
Fermi level =  -0.316032 Hartree
HOMO-LUMO gap =   0.071629 Hartree
Number of active orbitals = 18
Number of active electrons = 9
EMax =   2.08e-02
thresh =   1.00e-06
Generating Pseudo-Fermi distribution of occupation numbers.
--
# Rescaled active electrons =      9.000
Writing occupation numbers to disk ...
---- Fractional Occupation Number Information End ----


---- Fractional Occupation Number Information ----
Temperature =    300.000 K
Fermi level =  -0.309574 Hartree
HOMO-LUMO gap =   0.028075 Hartree
Number of active orbitals = 18
Number of active electrons = 9
EMax =   2.08e-02
thresh =   1.00e-06
Generating Pseudo-Fermi distribution of occupation numbers.
--
# Rescaled active electrons =      9.000
Writing occupation numbers to disk ...
---- Fractional Occupation Number Information End ----

   38   -1108.5349421476      2.08E-02

---- Fractional Occupation Number Information ----
Temperature =    300.000 K
Fermi level =  -0.332784 Hartree
HOMO-LUMO gap =   0.035397 Hartree
Number of active orbitals = 18
Number of active electrons = 9
EMax =   2.17e-02
thresh =   1.00e-06
Generating Pseudo-Fermi distribution of occupation numbers.
--
# Rescaled active electrons =      9.000
Writing occupation numbers to disk ...
---- Fractional Occupation Number Information End ----


---- Fractional Occupation Number Information ----
Temperature =    300.000 K
Fermi level =  -0.311881 Hartree
HOMO-LUMO gap =   0.027603 Hartree
Number of active orbitals = 18
Number of active electrons = 9
EMax =   2.17e-02
thresh =   1.00e-06
Generating Pseudo-Fermi distribution of occupation numbers.
--
# Rescaled active electrons =      9.000
Writing occupation numbers to disk ...
---- Fractional Occupation Number Information End ----

   39   -1108.4617368626      2.17E-02

---- Fractional Occupation Number Information ----
Temperature =    300.000 K
Fermi level =  -0.327789 Hartree
HOMO-LUMO gap =   0.071739 Hartree
Number of active orbitals = 18
Number of active electrons = 9
EMax =   2.03e-02
thresh =   1.00e-06
Generating Pseudo-Fermi distribution of occupation numbers.
--
# Rescaled active electrons =      9.000
Writing occupation numbers to disk ...
---- Fractional Occupation Number Information End ----


---- Fractional Occupation Number Information ----
Temperature =    300.000 K
Fermi level =  -0.322232 Hartree
HOMO-LUMO gap =   0.028268 Hartree
Number of active orbitals = 18
Number of active electrons = 9
EMax =   2.03e-02
thresh =   1.00e-06
Generating Pseudo-Fermi distribution of occupation numbers.
--
# Rescaled active electrons =      9.000
Writing occupation numbers to disk ...
---- Fractional Occupation Number Information End ----

   40   -1108.4051538019      2.03E-02

---- Fractional Occupation Number Information ----
Temperature =    300.000 K
Fermi level =  -0.326146 Hartree
HOMO-LUMO gap =   0.071846 Hartree
Number of active orbitals = 18
Number of active electrons = 9
EMax =   8.78e-03
thresh =   1.00e-06
Generating Pseudo-Fermi distribution of occupation numbers.
--
# Rescaled active electrons =      9.000
Writing occupation numbers to disk ...
---- Fractional Occupation Number Information End ----


---- Fractional Occupation Number Information ----
Temperature =    300.000 K
Fermi level =  -0.321020 Hartree
HOMO-LUMO gap =   0.028273 Hartree
Number of active orbitals = 18
Number of active electrons = 9
EMax =   8.78e-03
thresh =   1.00e-06
Generating Pseudo-Fermi distribution of occupation numbers.
--
# Rescaled active electrons =      9.000
Writing occupation numbers to disk ...
---- Fractional Occupation Number Information End ----

   41   -1112.3738313646      8.78E-03

---- Fractional Occupation Number Information ----
Temperature =    300.000 K
Fermi level =  -0.361566 Hartree
HOMO-LUMO gap =   0.008922 Hartree
Number of active orbitals = 18
Number of active electrons = 9
EMax =   6.39e-03
thresh =   1.00e-06
Generating Pseudo-Fermi distribution of occupation numbers.
--
# Rescaled active electrons =      9.000
Writing occupation numbers to disk ...
---- Fractional Occupation Number Information End ----


---- Fractional Occupation Number Information ----
Temperature =    300.000 K
Fermi level =  -0.344035 Hartree
HOMO-LUMO gap =   0.027419 Hartree
Number of active orbitals = 18
Number of active electrons = 9
EMax =   6.39e-03
thresh =   1.00e-06
Generating Pseudo-Fermi distribution of occupation numbers.
--
# Rescaled active electrons =      9.000
Writing occupation numbers to disk ...
---- Fractional Occupation Number Information End ----

   42   -1112.4123628227      6.39E-03

---- Fractional Occupation Number Information ----
Temperature =    300.000 K
Fermi level =  -0.360015 Hartree
HOMO-LUMO gap =   0.008696 Hartree
Number of active orbitals = 18
Number of active electrons = 9
EMax =   9.85e-02
thresh =   1.00e-06
Generating Pseudo-Fermi distribution of occupation numbers.
--
# Rescaled active electrons =      9.000
Writing occupation numbers to disk ...
---- Fractional Occupation Number Information End ----


---- Fractional Occupation Number Information ----
Temperature =    300.000 K
Fermi level =  -0.342480 Hartree
HOMO-LUMO gap =   0.027043 Hartree
Number of active orbitals = 18
Number of active electrons = 9
EMax =   9.85e-02
thresh =   1.00e-06
Generating Pseudo-Fermi distribution of occupation numbers.
--
# Rescaled active electrons =      9.000
Writing occupation numbers to disk ...
---- Fractional Occupation Number Information End ----

   43   -1201.0766883138      9.85E-02

---- Fractional Occupation Number Information ----
Temperature =    300.000 K
Fermi level =  -0.358692 Hartree
HOMO-LUMO gap =   0.008351 Hartree
Number of active orbitals = 18
Number of active electrons = 9
EMax =   1.10e-01
thresh =   1.00e-06
Generating Pseudo-Fermi distribution of occupation numbers.
--
# Rescaled active electrons =      9.000
Writing occupation numbers to disk ...
---- Fractional Occupation Number Information End ----


---- Fractional Occupation Number Information ----
Temperature =    300.000 K
Fermi level =  -0.341163 Hartree
HOMO-LUMO gap =   0.026557 Hartree
Number of active orbitals = 18
Number of active electrons = 9
EMax =   1.10e-01
thresh =   1.00e-06
Generating Pseudo-Fermi distribution of occupation numbers.
--
# Rescaled active electrons =      9.000
Writing occupation numbers to disk ...
---- Fractional Occupation Number Information End ----

   44   -1209.3427524659      1.10E-01

---- Fractional Occupation Number Information ----
Temperature =    300.000 K
Fermi level =  -0.358776 Hartree
HOMO-LUMO gap =   0.008380 Hartree
Number of active orbitals = 18
Number of active electrons = 9
EMax =   1.20e-01
thresh =   1.00e-06
Generating Pseudo-Fermi distribution of occupation numbers.
--
# Rescaled active electrons =      9.000
Writing occupation numbers to disk ...
---- Fractional Occupation Number Information End ----


---- Fractional Occupation Number Information ----
Temperature =    300.000 K
Fermi level =  -0.341248 Hartree
HOMO-LUMO gap =   0.026590 Hartree
Number of active orbitals = 18
Number of active electrons = 9
EMax =   1.20e-01
thresh =   1.00e-06
Generating Pseudo-Fermi distribution of occupation numbers.
--
# Rescaled active electrons =      9.000
Writing occupation numbers to disk ...
---- Fractional Occupation Number Information End ----

   45   -1214.3662156071      1.20E-01

---- Fractional Occupation Number Information ----
Temperature =    300.000 K
Fermi level =  -0.358136 Hartree
HOMO-LUMO gap =   0.008280 Hartree
Number of active orbitals = 18
Number of active electrons = 9
EMax =   1.18e-01
thresh =   1.00e-06
Generating Pseudo-Fermi distribution of occupation numbers.
--
# Rescaled active electrons =      9.000
Writing occupation numbers to disk ...
---- Fractional Occupation Number Information End ----


---- Fractional Occupation Number Information ----
Temperature =    300.000 K
Fermi level =  -0.344316 Hartree
HOMO-LUMO gap =   0.019027 Hartree
Number of active orbitals = 18
Number of active electrons = 9
EMax =   1.18e-01
thresh =   1.00e-06
Generating Pseudo-Fermi distribution of occupation numbers.
--
# Rescaled active electrons =      9.000
Writing occupation numbers to disk ...
---- Fractional Occupation Number Information End ----

   46   -1213.0994458980      1.18E-01

---- Fractional Occupation Number Information ----
Temperature =    300.000 K
Fermi level =  -0.365818 Hartree
HOMO-LUMO gap =   0.010301 Hartree
Number of active orbitals = 18
Number of active electrons = 9
EMax =   1.35e-01
thresh =   1.00e-06
Generating Pseudo-Fermi distribution of occupation numbers.
--
# Rescaled active electrons =      9.000
Writing occupation numbers to disk ...
---- Fractional Occupation Number Information End ----


---- Fractional Occupation Number Information ----
Temperature =    300.000 K
Fermi level =  -0.348361 Hartree
HOMO-LUMO gap =   0.029186 Hartree
Number of active orbitals = 18
Number of active electrons = 9
EMax =   1.35e-01
thresh =   1.00e-06
Generating Pseudo-Fermi distribution of occupation numbers.
--
# Rescaled active electrons =      9.000
Writing occupation numbers to disk ...
---- Fractional Occupation Number Information End ----

   47   -1229.5113207748      1.35E-01

---- Fractional Occupation Number Information ----
Temperature =    300.000 K
Fermi level =  -0.364425 Hartree
HOMO-LUMO gap =   0.007100 Hartree
Number of active orbitals = 18
Number of active electrons = 9
EMax =   1.89e-01
thresh =   1.00e-06
Generating Pseudo-Fermi distribution of occupation numbers.
--
# Rescaled active electrons =      9.000
Writing occupation numbers to disk ...
---- Fractional Occupation Number Information End ----


---- Fractional Occupation Number Information ----
Temperature =    300.000 K
Fermi level =  -0.348667 Hartree
HOMO-LUMO gap =   0.029287 Hartree
Number of active orbitals = 18
Number of active electrons = 9
EMax =   1.89e-01
thresh =   1.00e-06
Generating Pseudo-Fermi distribution of occupation numbers.
--
# Rescaled active electrons =      9.000
Writing occupation numbers to disk ...
---- Fractional Occupation Number Information End ----

   48   -1278.3020218157      1.89E-01

---- Fractional Occupation Number Information ----
Temperature =    300.000 K
Fermi level =  -0.362289 Hartree
HOMO-LUMO gap =   0.002712 Hartree
Number of active orbitals = 18
Number of active electrons = 9
EMax =   1.94e-01
thresh =   1.00e-06
Generating Pseudo-Fermi distribution of occupation numbers.
--
# Rescaled active electrons =      9.000
Writing occupation numbers to disk ...
---- Fractional Occupation Number Information End ----


---- Fractional Occupation Number Information ----
Temperature =    300.000 K
Fermi level =  -0.351073 Hartree
HOMO-LUMO gap =   0.030125 Hartree
Number of active orbitals = 18
Number of active electrons = 9
EMax =   1.94e-01
thresh =   1.00e-06
Generating Pseudo-Fermi distribution of occupation numbers.
--
# Rescaled active electrons =      9.000
Writing occupation numbers to disk ...
---- Fractional Occupation Number Information End ----

   49   -1281.5217433666      1.94E-01

---- Fractional Occupation Number Information ----
Temperature =    300.000 K
Fermi level =  -0.366094 Hartree
HOMO-LUMO gap =   0.010480 Hartree
Number of active orbitals = 18
Number of active electrons = 9
EMax =   1.38e-01
thresh =   1.00e-06
Generating Pseudo-Fermi distribution of occupation numbers.
--
# Rescaled active electrons =      9.000
Writing occupation numbers to disk ...
---- Fractional Occupation Number Information End ----


---- Fractional Occupation Number Information ----
Temperature =    300.000 K
Fermi level =  -0.352543 Hartree
HOMO-LUMO gap =   0.022358 Hartree
Number of active orbitals = 18
Number of active electrons = 9
EMax =   1.38e-01
thresh =   1.00e-06
Generating Pseudo-Fermi distribution of occupation numbers.
--
# Rescaled active electrons =      9.000
Writing occupation numbers to disk ...
---- Fractional Occupation Number Information End ----

   50   -1227.7395584096      1.38E-01

---- Fractional Occupation Number Information ----
Temperature =    300.000 K
Fermi level =  -0.367588 Hartree
HOMO-LUMO gap =   0.010915 Hartree
Number of active orbitals = 18
Number of active electrons = 9
EMax =   2.31e-01
thresh =   1.00e-06
Generating Pseudo-Fermi distribution of occupation numbers.
--
# Rescaled active electrons =      9.000
Writing occupation numbers to disk ...
---- Fractional Occupation Number Information End ----


---- Fractional Occupation Number Information ----
Temperature =    300.000 K
Fermi level =  -0.361113 Hartree
HOMO-LUMO gap =   0.009244 Hartree
Number of active orbitals = 18
Number of active electrons = 9
EMax =   2.31e-01
thresh =   1.00e-06
Generating Pseudo-Fermi distribution of occupation numbers.
--
# Rescaled active electrons =      9.000
Writing occupation numbers to disk ...
---- Fractional Occupation Number Information End ----

   51   -1306.1617651498      2.31E-01

---- Fractional Occupation Number Information ----
Temperature =    300.000 K
Fermi level =  -0.366084 Hartree
HOMO-LUMO gap =   0.010448 Hartree
Number of active orbitals = 18
Number of active electrons = 9
EMax =   2.01e-01
thresh =   1.00e-06
Generating Pseudo-Fermi distribution of occupation numbers.
--
# Rescaled active electrons =      9.000
Writing occupation numbers to disk ...
---- Fractional Occupation Number Information End ----


---- Fractional Occupation Number Information ----
Temperature =    300.000 K
Fermi level =  -0.360160 Hartree
HOMO-LUMO gap =   0.007575 Hartree
Number of active orbitals = 18
Number of active electrons = 9
EMax =   2.01e-01
thresh =   1.00e-06
Generating Pseudo-Fermi distribution of occupation numbers.
--
# Rescaled active electrons =      9.000
Writing occupation numbers to disk ...
---- Fractional Occupation Number Information End ----

   52   -1290.6194863948      2.01E-01

---- Fractional Occupation Number Information ----
Temperature =    300.000 K
Fermi level =  -0.369574 Hartree
HOMO-LUMO gap =   0.011142 Hartree
Number of active orbitals = 18
Number of active electrons = 9
EMax =   8.20e-02
thresh =   1.00e-06
Generating Pseudo-Fermi distribution of occupation numbers.
--
# Rescaled active electrons =      9.000
Writing occupation numbers to disk ...
---- Fractional Occupation Number Information End ----


---- Fractional Occupation Number Information ----
Temperature =    300.000 K
Fermi level =  -0.356604 Hartree
HOMO-LUMO gap =   0.023177 Hartree
Number of active orbitals = 18
Number of active electrons = 9
EMax =   8.20e-02
thresh =   1.00e-06
Generating Pseudo-Fermi distribution of occupation numbers.
--
# Rescaled active electrons =      9.000
Writing occupation numbers to disk ...
---- Fractional Occupation Number Information End ----

   53   -1185.8437193527      8.20E-02

---- Fractional Occupation Number Information ----
Temperature =    300.000 K
Fermi level =  -0.376199 Hartree
HOMO-LUMO gap =   0.003847 Hartree
Number of active orbitals = 18
Number of active electrons = 9
EMax =   1.61e-01
thresh =   1.00e-06
Generating Pseudo-Fermi distribution of occupation numbers.
--
# Rescaled active electrons =      9.000
Writing occupation numbers to disk ...
---- Fractional Occupation Number Information End ----


---- Fractional Occupation Number Information ----
Temperature =    300.000 K
Fermi level =  -0.395079 Hartree
HOMO-LUMO gap =   0.053629 Hartree
Number of active orbitals = 18
Number of active electrons = 9
EMax =   1.61e-01
thresh =   1.00e-06
Generating Pseudo-Fermi distribution of occupation numbers.
--
# Rescaled active electrons =      9.000
Writing occupation numbers to disk ...
---- Fractional Occupation Number Information End ----

   54   -1266.3975676689      1.61E-01

---- Fractional Occupation Number Information ----
Temperature =    300.000 K
Fermi level =  -0.341766 Hartree
HOMO-LUMO gap =   0.055754 Hartree
Number of active orbitals = 18
Number of active electrons = 9
EMax =   2.39e-02
thresh =   1.00e-06
Generating Pseudo-Fermi distribution of occupation numbers.
--
# Rescaled active electrons =      9.000
Writing occupation numbers to disk ...
---- Fractional Occupation Number Information End ----


---- Fractional Occupation Number Information ----
Temperature =    300.000 K
Fermi level =  -0.359944 Hartree
HOMO-LUMO gap =   0.029795 Hartree
Number of active orbitals = 18
Number of active electrons = 9
EMax =   2.39e-02
thresh =   1.00e-06
Generating Pseudo-Fermi distribution of occupation numbers.
--
# Rescaled active electrons =      9.000
Writing occupation numbers to disk ...
---- Fractional Occupation Number Information End ----

   55   -1129.3258674026      2.39E-02

---- Fractional Occupation Number Information ----
Temperature =    300.000 K
Fermi level =  -0.364838 Hartree
HOMO-LUMO gap =   0.016344 Hartree
Number of active orbitals = 18
Number of active electrons = 9
EMax =   1.01e-01
thresh =   1.00e-06
Generating Pseudo-Fermi distribution of occupation numbers.
--
# Rescaled active electrons =      9.000
Writing occupation numbers to disk ...
---- Fractional Occupation Number Information End ----


---- Fractional Occupation Number Information ----
Temperature =    300.000 K
Fermi level =  -0.384852 Hartree
HOMO-LUMO gap =   0.012905 Hartree
Number of active orbitals = 18
Number of active electrons = 9
EMax =   1.01e-01
thresh =   1.00e-06
Generating Pseudo-Fermi distribution of occupation numbers.
--
# Rescaled active electrons =      9.000
Writing occupation numbers to disk ...
---- Fractional Occupation Number Information End ----

   56   -1160.4798833338      1.01E-01

---- Fractional Occupation Number Information ----
Temperature =    300.000 K
Fermi level =  -0.616240 Hartree
HOMO-LUMO gap =   0.012862 Hartree
Number of active orbitals = 18
Number of active electrons = 9
EMax =   1.91e-02
thresh =   1.00e-06
Generating Pseudo-Fermi distribution of occupation numbers.
--
# Rescaled active electrons =      9.000
Writing occupation numbers to disk ...
---- Fractional Occupation Number Information End ----


---- Fractional Occupation Number Information ----
Temperature =    300.000 K
Fermi level =  -0.611140 Hartree
HOMO-LUMO gap =   0.034742 Hartree
Number of active orbitals = 18
Number of active electrons = 9
EMax =   1.91e-02
thresh =   1.00e-06
Generating Pseudo-Fermi distribution of occupation numbers.
--
# Rescaled active electrons =      9.000
Writing occupation numbers to disk ...
---- Fractional Occupation Number Information End ----

   57   -1115.9797515254      1.91E-02

---- Fractional Occupation Number Information ----
Temperature =    300.000 K
Fermi level =  -0.718653 Hartree
HOMO-LUMO gap =   0.049680 Hartree
Number of active orbitals = 18
Number of active electrons = 9
EMax =   9.66e-03
thresh =   1.00e-06
Generating Pseudo-Fermi distribution of occupation numbers.
--
# Rescaled active electrons =      9.000
Writing occupation numbers to disk ...
---- Fractional Occupation Number Information End ----


---- Fractional Occupation Number Information ----
Temperature =    300.000 K
Fermi level =  -0.719048 Hartree
HOMO-LUMO gap =   0.001966 Hartree
Number of active orbitals = 18
Number of active electrons = 9
EMax =   9.66e-03
thresh =   1.00e-06
Generating Pseudo-Fermi distribution of occupation numbers.
--
# Rescaled active electrons =      9.000
Writing occupation numbers to disk ...
---- Fractional Occupation Number Information End ----

   58   -1117.4997193534      9.66E-03

---- Fractional Occupation Number Information ----
Temperature =    300.000 K
Fermi level =  -0.447780 Hartree
HOMO-LUMO gap =   0.062287 Hartree
Number of active orbitals = 18
Number of active electrons = 9
EMax =   8.88e-03
thresh =   1.00e-06
Generating Pseudo-Fermi distribution of occupation numbers.
--
# Rescaled active electrons =      9.000
Writing occupation numbers to disk ...
---- Fractional Occupation Number Information End ----


---- Fractional Occupation Number Information ----
Temperature =    300.000 K
Fermi level =  -0.435250 Hartree
HOMO-LUMO gap =   0.008804 Hartree
Number of active orbitals = 18
Number of active electrons = 9
EMax =   8.88e-03
thresh =   1.00e-06
Generating Pseudo-Fermi distribution of occupation numbers.
--
# Rescaled active electrons =      9.000
Writing occupation numbers to disk ...
---- Fractional Occupation Number Information End ----

   59   -1104.7231736668      8.88E-03

---- Fractional Occupation Number Information ----
Temperature =    300.000 K
Fermi level =  -0.360965 Hartree
HOMO-LUMO gap =   0.071887 Hartree
Number of active orbitals = 18
Number of active electrons = 9
EMax =   4.84e-03
thresh =   1.00e-06
Generating Pseudo-Fermi distribution of occupation numbers.
--
# Rescaled active electrons =      9.000
Writing occupation numbers to disk ...
---- Fractional Occupation Number Information End ----


---- Fractional Occupation Number Information ----
Temperature =    300.000 K
Fermi level =  -0.347416 Hartree
HOMO-LUMO gap =   0.022763 Hartree
Number of active orbitals = 18
Number of active electrons = 9
EMax =   4.84e-03
thresh =   1.00e-06
Generating Pseudo-Fermi distribution of occupation numbers.
--
# Rescaled active electrons =      9.000
Writing occupation numbers to disk ...
---- Fractional Occupation Number Information End ----

   60   -1107.7778089377      4.84E-03

---- Fractional Occupation Number Information ----
Temperature =    300.000 K
Fermi level =  -0.331317 Hartree
HOMO-LUMO gap =   0.073803 Hartree
Number of active orbitals = 18
Number of active electrons = 9
EMax =   3.97e-03
thresh =   1.00e-06
Generating Pseudo-Fermi distribution of occupation numbers.
--
# Rescaled active electrons =      9.000
Writing occupation numbers to disk ...
---- Fractional Occupation Number Information End ----


---- Fractional Occupation Number Information ----
Temperature =    300.000 K
Fermi level =  -0.317000 Hartree
HOMO-LUMO gap =   0.026188 Hartree
Number of active orbitals = 18
Number of active electrons = 9
EMax =   3.97e-03
thresh =   1.00e-06
Generating Pseudo-Fermi distribution of occupation numbers.
--
# Rescaled active electrons =      9.000
Writing occupation numbers to disk ...
---- Fractional Occupation Number Information End ----

   61   -1109.0055184810      3.97E-03

---- Fractional Occupation Number Information ----
Temperature =    300.000 K
Fermi level =  -0.325058 Hartree
HOMO-LUMO gap =   0.073756 Hartree
Number of active orbitals = 18
Number of active electrons = 9
EMax =   2.03e-03
thresh =   1.00e-06
Generating Pseudo-Fermi distribution of occupation numbers.
--
# Rescaled active electrons =      9.000
Writing occupation numbers to disk ...
---- Fractional Occupation Number Information End ----


---- Fractional Occupation Number Information ----
Temperature =    300.000 K
Fermi level =  -0.313806 Hartree
HOMO-LUMO gap =   0.026745 Hartree
Number of active orbitals = 18
Number of active electrons = 9
EMax =   2.03e-03
thresh =   1.00e-06
Generating Pseudo-Fermi distribution of occupation numbers.
--
# Rescaled active electrons =      9.000
Writing occupation numbers to disk ...
---- Fractional Occupation Number Information End ----

   62   -1109.6335474764      2.03E-03

---- Fractional Occupation Number Information ----
Temperature =    300.000 K
Fermi level =  -0.318159 Hartree
HOMO-LUMO gap =   0.074125 Hartree
Number of active orbitals = 18
Number of active electrons = 9
EMax =   1.54e-03
thresh =   1.00e-06
Generating Pseudo-Fermi distribution of occupation numbers.
--
# Rescaled active electrons =      9.000
Writing occupation numbers to disk ...
---- Fractional Occupation Number Information End ----


---- Fractional Occupation Number Information ----
Temperature =    300.000 K
Fermi level =  -0.308634 Hartree
HOMO-LUMO gap =   0.027508 Hartree
Number of active orbitals = 18
Number of active electrons = 9
EMax =   1.54e-03
thresh =   1.00e-06
Generating Pseudo-Fermi distribution of occupation numbers.
--
# Rescaled active electrons =      9.000
Writing occupation numbers to disk ...
---- Fractional Occupation Number Information End ----

   63   -1109.4763927573      1.54E-03

---- Fractional Occupation Number Information ----
Temperature =    300.000 K
Fermi level =  -0.308216 Hartree
HOMO-LUMO gap =   0.074267 Hartree
Number of active orbitals = 18
Number of active electrons = 9
EMax =   1.54e-03
thresh =   1.00e-06
Generating Pseudo-Fermi distribution of occupation numbers.
--
# Rescaled active electrons =      9.000
Writing occupation numbers to disk ...
---- Fractional Occupation Number Information End ----


---- Fractional Occupation Number Information ----
Temperature =    300.000 K
Fermi level =  -0.298611 Hartree
HOMO-LUMO gap =   0.028267 Hartree
Number of active orbitals = 18
Number of active electrons = 9
EMax =   1.54e-03
thresh =   1.00e-06
Generating Pseudo-Fermi distribution of occupation numbers.
--
# Rescaled active electrons =      9.000
Writing occupation numbers to disk ...
---- Fractional Occupation Number Information End ----

   64   -1109.6951680982      1.54E-03

---- Fractional Occupation Number Information ----
Temperature =    300.000 K
Fermi level =  -0.306076 Hartree
HOMO-LUMO gap =   0.074514 Hartree
Number of active orbitals = 18
Number of active electrons = 9
EMax =   2.01e-03
thresh =   1.00e-06
Generating Pseudo-Fermi distribution of occupation numbers.
--
# Rescaled active electrons =      9.000
Writing occupation numbers to disk ...
---- Fractional Occupation Number Information End ----


---- Fractional Occupation Number Information ----
Temperature =    300.000 K
Fermi level =  -0.296964 Hartree
HOMO-LUMO gap =   0.028353 Hartree
Number of active orbitals = 18
Number of active electrons = 9
EMax =   2.01e-03
thresh =   1.00e-06
Generating Pseudo-Fermi distribution of occupation numbers.
--
# Rescaled active electrons =      9.000
Writing occupation numbers to disk ...
---- Fractional Occupation Number Information End ----

   65   -1109.8604153455      2.01E-03

---- Fractional Occupation Number Information ----
Temperature =    300.000 K
Fermi level =  -0.304860 Hartree
HOMO-LUMO gap =   0.074380 Hartree
Number of active orbitals = 18
Number of active electrons = 9
EMax =   1.99e-03
thresh =   1.00e-06
Generating Pseudo-Fermi distribution of occupation numbers.
--
# Rescaled active electrons =      9.000
Writing occupation numbers to disk ...
---- Fractional Occupation Number Information End ----


---- Fractional Occupation Number Information ----
Temperature =    300.000 K
Fermi level =  -0.296048 Hartree
HOMO-LUMO gap =   0.028397 Hartree
Number of active orbitals = 18
Number of active electrons = 9
EMax =   1.99e-03
thresh =   1.00e-06
Generating Pseudo-Fermi distribution of occupation numbers.
--
# Rescaled active electrons =      9.000
Writing occupation numbers to disk ...
---- Fractional Occupation Number Information End ----

   66   -1110.0367080332      1.99E-03

---- Fractional Occupation Number Information ----
Temperature =    300.000 K
Fermi level =  -0.315467 Hartree
HOMO-LUMO gap =   0.073503 Hartree
Number of active orbitals = 18
Number of active electrons = 9
EMax =   1.53e-03
thresh =   1.00e-06
Generating Pseudo-Fermi distribution of occupation numbers.
--
# Rescaled active electrons =      9.000
Writing occupation numbers to disk ...
---- Fractional Occupation Number Information End ----


---- Fractional Occupation Number Information ----
Temperature =    300.000 K
Fermi level =  -0.307645 Hartree
HOMO-LUMO gap =   0.027519 Hartree
Number of active orbitals = 18
Number of active electrons = 9
EMax =   1.53e-03
thresh =   1.00e-06
Generating Pseudo-Fermi distribution of occupation numbers.
--
# Rescaled active electrons =      9.000
Writing occupation numbers to disk ...
---- Fractional Occupation Number Information End ----

   67   -1110.3168016448      1.53E-03

---- Fractional Occupation Number Information ----
Temperature =    300.000 K
Fermi level =  -0.315965 Hartree
HOMO-LUMO gap =   0.073492 Hartree
Number of active orbitals = 18
Number of active electrons = 9
EMax =   2.55e-03
thresh =   1.00e-06
Generating Pseudo-Fermi distribution of occupation numbers.
--
# Rescaled active electrons =      9.000
Writing occupation numbers to disk ...
---- Fractional Occupation Number Information End ----


---- Fractional Occupation Number Information ----
Temperature =    300.000 K
Fermi level =  -0.308333 Hartree
HOMO-LUMO gap =   0.027484 Hartree
Number of active orbitals = 18
Number of active electrons = 9
EMax =   2.55e-03
thresh =   1.00e-06
Generating Pseudo-Fermi distribution of occupation numbers.
--
# Rescaled active electrons =      9.000
Writing occupation numbers to disk ...
---- Fractional Occupation Number Information End ----

   68   -1110.4082061430      2.55E-03

---- Fractional Occupation Number Information ----
Temperature =    300.000 K
Fermi level =  -0.314080 Hartree
HOMO-LUMO gap =   0.073415 Hartree
Number of active orbitals = 18
Number of active electrons = 9
EMax =   9.13e-04
thresh =   1.00e-06
Generating Pseudo-Fermi distribution of occupation numbers.
--
# Rescaled active electrons =      9.000
Writing occupation numbers to disk ...
---- Fractional Occupation Number Information End ----


---- Fractional Occupation Number Information ----
Temperature =    300.000 K
Fermi level =  -0.306696 Hartree
HOMO-LUMO gap =   0.027583 Hartree
Number of active orbitals = 18
Number of active electrons = 9
EMax =   9.13e-04
thresh =   1.00e-06
Generating Pseudo-Fermi distribution of occupation numbers.
--
# Rescaled active electrons =      9.000
Writing occupation numbers to disk ...
---- Fractional Occupation Number Information End ----

   69   -1110.5416427851      9.13E-04

---- Fractional Occupation Number Information ----
Temperature =    300.000 K
Fermi level =  -0.325739 Hartree
HOMO-LUMO gap =   0.066371 Hartree
Number of active orbitals = 18
Number of active electrons = 9
EMax =   2.67e-03
thresh =   1.00e-06
Generating Pseudo-Fermi distribution of occupation numbers.
--
# Rescaled active electrons =      9.000
Writing occupation numbers to disk ...
---- Fractional Occupation Number Information End ----


---- Fractional Occupation Number Information ----
Temperature =    300.000 K
Fermi level =  -0.320084 Hartree
HOMO-LUMO gap =   0.016186 Hartree
Number of active orbitals = 18
Number of active electrons = 9
EMax =   2.67e-03
thresh =   1.00e-06
Generating Pseudo-Fermi distribution of occupation numbers.
--
# Rescaled active electrons =      9.000
Writing occupation numbers to disk ...
---- Fractional Occupation Number Information End ----

   70   -1111.1652842987      2.67E-03

---- Fractional Occupation Number Information ----
Temperature =    300.000 K
Fermi level =  -0.322782 Hartree
HOMO-LUMO gap =   0.072855 Hartree
Number of active orbitals = 18
Number of active electrons = 9
EMax =   9.87e-03
thresh =   1.00e-06
Generating Pseudo-Fermi distribution of occupation numbers.
--
# Rescaled active electrons =      9.000
Writing occupation numbers to disk ...
---- Fractional Occupation Number Information End ----


---- Fractional Occupation Number Information ----
Temperature =    300.000 K
Fermi level =  -0.315401 Hartree
HOMO-LUMO gap =   0.026914 Hartree
Number of active orbitals = 18
Number of active electrons = 9
EMax =   9.87e-03
thresh =   1.00e-06
Generating Pseudo-Fermi distribution of occupation numbers.
--
# Rescaled active electrons =      9.000
Writing occupation numbers to disk ...
---- Fractional Occupation Number Information End ----

   71   -1106.4227157096      9.87E-03

---- Fractional Occupation Number Information ----
Temperature =    300.000 K
Fermi level =  -0.320996 Hartree
HOMO-LUMO gap =   0.072575 Hartree
Number of active orbitals = 18
Number of active electrons = 9
EMax =   6.42e-03
thresh =   1.00e-06
Generating Pseudo-Fermi distribution of occupation numbers.
--
# Rescaled active electrons =      9.000
Writing occupation numbers to disk ...
---- Fractional Occupation Number Information End ----


---- Fractional Occupation Number Information ----
Temperature =    300.000 K
Fermi level =  -0.314580 Hartree
HOMO-LUMO gap =   0.027049 Hartree
Number of active orbitals = 18
Number of active electrons = 9
EMax =   6.42e-03
thresh =   1.00e-06
Generating Pseudo-Fermi distribution of occupation numbers.
--
# Rescaled active electrons =      9.000
Writing occupation numbers to disk ...
---- Fractional Occupation Number Information End ----

   72   -1110.8991300937      6.42E-03

---- Fractional Occupation Number Information ----
Temperature =    300.000 K
Fermi level =  -0.319290 Hartree
HOMO-LUMO gap =   0.072704 Hartree
Number of active orbitals = 18
Number of active electrons = 9
EMax =   8.56e-03
thresh =   1.00e-06
Generating Pseudo-Fermi distribution of occupation numbers.
--
# Rescaled active electrons =      9.000
Writing occupation numbers to disk ...
---- Fractional Occupation Number Information End ----


---- Fractional Occupation Number Information ----
Temperature =    300.000 K
Fermi level =  -0.312837 Hartree
HOMO-LUMO gap =   0.027172 Hartree
Number of active orbitals = 18
Number of active electrons = 9
EMax =   8.56e-03
thresh =   1.00e-06
Generating Pseudo-Fermi distribution of occupation numbers.
--
# Rescaled active electrons =      9.000
Writing occupation numbers to disk ...
---- Fractional Occupation Number Information End ----
[...]
thresh =   1.00e-06
Generating Pseudo-Fermi distribution of occupation numbers.
--
# Rescaled active electrons =      9.000
Writing occupation numbers to disk ...
---- Fractional Occupation Number Information End ----

  179   -1108.3888024879      9.95E-02

---- Fractional Occupation Number Information ----
Temperature =    300.000 K
Fermi level =  -0.325058 Hartree
HOMO-LUMO gap =   0.070287 Hartree
Number of active orbitals = 18
Number of active electrons = 9
EMax =   1.16e-02
thresh =   1.00e-06
Generating Pseudo-Fermi distribution of occupation numbers.
--
# Rescaled active electrons =      9.000
Writing occupation numbers to disk ...
---- Fractional Occupation Number Information End ----


---- Fractional Occupation Number Information ----
Temperature =    300.000 K
Fermi level =  -0.319758 Hartree
HOMO-LUMO gap =   0.042561 Hartree
Number of active orbitals = 18
Number of active electrons = 9
EMax =   1.16e-02
thresh =   1.00e-06
Generating Pseudo-Fermi distribution of occupation numbers.
--
# Rescaled active electrons =      9.000
Writing occupation numbers to disk ...
---- Fractional Occupation Number Information End ----

  180   -1101.8013962039      1.16E-02

---- Fractional Occupation Number Information ----
Temperature =    300.000 K
Fermi level =  -0.321026 Hartree
HOMO-LUMO gap =   0.082166 Hartree
Number of active orbitals = 18
Number of active electrons = 9
EMax =   8.66e-02
thresh =   1.00e-06
Generating Pseudo-Fermi distribution of occupation numbers.
--
# Rescaled active electrons =      9.000
Writing occupation numbers to disk ...
---- Fractional Occupation Number Information End ----


---- Fractional Occupation Number Information ----
Temperature =    300.000 K
Fermi level =  -0.320104 Hartree
HOMO-LUMO gap =   0.043447 Hartree
Number of active orbitals = 18
Number of active electrons = 9
EMax =   8.66e-02
thresh =   1.00e-06
Generating Pseudo-Fermi distribution of occupation numbers.
--
# Rescaled active electrons =      9.000
Writing occupation numbers to disk ...
---- Fractional Occupation Number Information End ----

  181   -1116.6850841876      8.66E-02

---- Fractional Occupation Number Information ----
Temperature =    300.000 K
Fermi level =  -0.319363 Hartree
HOMO-LUMO gap =   0.082062 Hartree
Number of active orbitals = 18
Number of active electrons = 9
EMax =   6.43e-02
thresh =   1.00e-06
Generating Pseudo-Fermi distribution of occupation numbers.
--
# Rescaled active electrons =      9.000
Writing occupation numbers to disk ...
---- Fractional Occupation Number Information End ----


---- Fractional Occupation Number Information ----
Temperature =    300.000 K
Fermi level =  -0.320700 Hartree
HOMO-LUMO gap =   0.042370 Hartree
Number of active orbitals = 18
Number of active electrons = 9
EMax =   6.43e-02
thresh =   1.00e-06
Generating Pseudo-Fermi distribution of occupation numbers.
--
# Rescaled active electrons =      9.000
Writing occupation numbers to disk ...
---- Fractional Occupation Number Information End ----

  182   -1112.6604776072      6.43E-02

---- Fractional Occupation Number Information ----
Temperature =    300.000 K
Fermi level =  -0.321872 Hartree
HOMO-LUMO gap =   0.082304 Hartree
Number of active orbitals = 18
Number of active electrons = 9
EMax =   7.55e-02
thresh =   1.00e-06
Generating Pseudo-Fermi distribution of occupation numbers.
--
# Rescaled active electrons =      9.000
Writing occupation numbers to disk ...
---- Fractional Occupation Number Information End ----


---- Fractional Occupation Number Information ----
Temperature =    300.000 K
Fermi level =  -0.321895 Hartree
HOMO-LUMO gap =   0.043234 Hartree
Number of active orbitals = 18
Number of active electrons = 9
EMax =   7.55e-02
thresh =   1.00e-06
Generating Pseudo-Fermi distribution of occupation numbers.
--
# Rescaled active electrons =      9.000
Writing occupation numbers to disk ...
---- Fractional Occupation Number Information End ----

  183   -1115.1745441926      7.55E-02

---- Fractional Occupation Number Information ----
Temperature =    300.000 K
Fermi level =  -0.324919 Hartree
HOMO-LUMO gap =   0.081990 Hartree
Number of active orbitals = 18
Number of active electrons = 9
EMax =   6.27e-02
thresh =   1.00e-06
Generating Pseudo-Fermi distribution of occupation numbers.
--
# Rescaled active electrons =      9.000
Writing occupation numbers to disk ...
---- Fractional Occupation Number Information End ----


---- Fractional Occupation Number Information ----
Temperature =    300.000 K
Fermi level =  -0.323552 Hartree
HOMO-LUMO gap =   0.044826 Hartree
Number of active orbitals = 18
Number of active electrons = 9
EMax =   6.27e-02
thresh =   1.00e-06
Generating Pseudo-Fermi distribution of occupation numbers.
--
# Rescaled active electrons =      9.000
Writing occupation numbers to disk ...
---- Fractional Occupation Number Information End ----

  184   -1111.3547598953      6.27E-02

---- Fractional Occupation Number Information ----
Temperature =    300.000 K
Fermi level =  -0.322154 Hartree
HOMO-LUMO gap =   0.082304 Hartree
Number of active orbitals = 18
Number of active electrons = 9
EMax =   4.14e-02
thresh =   1.00e-06
Generating Pseudo-Fermi distribution of occupation numbers.
--
# Rescaled active electrons =      9.000
Writing occupation numbers to disk ...
---- Fractional Occupation Number Information End ----


---- Fractional Occupation Number Information ----
Temperature =    300.000 K
Fermi level =  -0.321546 Hartree
HOMO-LUMO gap =   0.043324 Hartree
Number of active orbitals = 18
Number of active electrons = 9
EMax =   4.14e-02
thresh =   1.00e-06
Generating Pseudo-Fermi distribution of occupation numbers.
--
# Rescaled active electrons =      9.000
Writing occupation numbers to disk ...
---- Fractional Occupation Number Information End ----

  185   -1108.8995439843      4.14E-02

---- Fractional Occupation Number Information ----
Temperature =    300.000 K
Fermi level =  -0.318323 Hartree
HOMO-LUMO gap =   0.082102 Hartree
Number of active orbitals = 18
Number of active electrons = 9
EMax =   4.21e-02
thresh =   1.00e-06
Generating Pseudo-Fermi distribution of occupation numbers.
--
# Rescaled active electrons =      9.000
Writing occupation numbers to disk ...
---- Fractional Occupation Number Information End ----


---- Fractional Occupation Number Information ----
Temperature =    300.000 K
Fermi level =  -0.321791 Hartree
HOMO-LUMO gap =   0.041931 Hartree
Number of active orbitals = 18
Number of active electrons = 9
EMax =   4.21e-02
thresh =   1.00e-06
Generating Pseudo-Fermi distribution of occupation numbers.
--
# Rescaled active electrons =      9.000
Writing occupation numbers to disk ...
---- Fractional Occupation Number Information End ----

  186   -1108.4725871703      4.21E-02

---- Fractional Occupation Number Information ----
Temperature =    300.000 K
Fermi level =  -0.315548 Hartree
HOMO-LUMO gap =   0.082044 Hartree
Number of active orbitals = 18
Number of active electrons = 9
EMax =   7.88e-02
thresh =   1.00e-06
Generating Pseudo-Fermi distribution of occupation numbers.
--
# Rescaled active electrons =      9.000
Writing occupation numbers to disk ...
---- Fractional Occupation Number Information End ----


---- Fractional Occupation Number Information ----
Temperature =    300.000 K
Fermi level =  -0.322452 Hartree
HOMO-LUMO gap =   0.041648 Hartree
Number of active orbitals = 18
Number of active electrons = 9
EMax =   7.88e-02
thresh =   1.00e-06
Generating Pseudo-Fermi distribution of occupation numbers.
--
# Rescaled active electrons =      9.000
Writing occupation numbers to disk ...
---- Fractional Occupation Number Information End ----

  187   -1113.5191737712      7.88E-02

---- Fractional Occupation Number Information ----
Temperature =    300.000 K
Fermi level =  -0.314148 Hartree
HOMO-LUMO gap =   0.081944 Hartree
Number of active orbitals = 18
Number of active electrons = 9
EMax =   3.81e-02
thresh =   1.00e-06
Generating Pseudo-Fermi distribution of occupation numbers.
--
# Rescaled active electrons =      9.000
Writing occupation numbers to disk ...
---- Fractional Occupation Number Information End ----


---- Fractional Occupation Number Information ----
Temperature =    300.000 K
Fermi level =  -0.319677 Hartree
HOMO-LUMO gap =   0.040753 Hartree
Number of active orbitals = 18
Number of active electrons = 9
EMax =   3.81e-02
thresh =   1.00e-06
Generating Pseudo-Fermi distribution of occupation numbers.
--
# Rescaled active electrons =      9.000
Writing occupation numbers to disk ...
---- Fractional Occupation Number Information End ----

  188   -1105.9278812822      3.81E-02

---- Fractional Occupation Number Information ----
Temperature =    300.000 K
Fermi level =  -0.316756 Hartree
HOMO-LUMO gap =   0.082628 Hartree
Number of active orbitals = 18
Number of active electrons = 9
EMax =   3.98e-02
thresh =   1.00e-06
Generating Pseudo-Fermi distribution of occupation numbers.
--
# Rescaled active electrons =      9.000
Writing occupation numbers to disk ...
---- Fractional Occupation Number Information End ----


---- Fractional Occupation Number Information ----
Temperature =    300.000 K
Fermi level =  -0.322118 Hartree
HOMO-LUMO gap =   0.041330 Hartree
Number of active orbitals = 18
Number of active electrons = 9
EMax =   3.98e-02
thresh =   1.00e-06
Generating Pseudo-Fermi distribution of occupation numbers.
--
# Rescaled active electrons =      9.000
Writing occupation numbers to disk ...
---- Fractional Occupation Number Information End ----

  189   -1106.1376654120      3.98E-02

---- Fractional Occupation Number Information ----
Temperature =    300.000 K
Fermi level =  -0.311912 Hartree
HOMO-LUMO gap =   0.081902 Hartree
Number of active orbitals = 18
Number of active electrons = 9
EMax =   7.80e-02
thresh =   1.00e-06
Generating Pseudo-Fermi distribution of occupation numbers.
--
# Rescaled active electrons =      9.000
Writing occupation numbers to disk ...
---- Fractional Occupation Number Information End ----


---- Fractional Occupation Number Information ----
Temperature =    300.000 K
Fermi level =  -0.319945 Hartree
HOMO-LUMO gap =   0.039688 Hartree
Number of active orbitals = 18
Number of active electrons = 9
EMax =   7.80e-02
thresh =   1.00e-06
Generating Pseudo-Fermi distribution of occupation numbers.
--
# Rescaled active electrons =      9.000
Writing occupation numbers to disk ...
---- Fractional Occupation Number Information End ----

  190   -1112.7446346947      7.80E-02

---- Fractional Occupation Number Information ----
Temperature =    300.000 K
Fermi level =  -0.306675 Hartree
HOMO-LUMO gap =   0.079220 Hartree
Number of active orbitals = 18
Number of active electrons = 9
EMax =   7.82e-02
thresh =   1.00e-06
Generating Pseudo-Fermi distribution of occupation numbers.
--
# Rescaled active electrons =      9.000
Writing occupation numbers to disk ...
---- Fractional Occupation Number Information End ----


---- Fractional Occupation Number Information ----
Temperature =    300.000 K
Fermi level =  -0.325485 Hartree
HOMO-LUMO gap =   0.036927 Hartree
Number of active orbitals = 18
Number of active electrons = 9
EMax =   7.82e-02
thresh =   1.00e-06
Generating Pseudo-Fermi distribution of occupation numbers.
--
# Rescaled active electrons =      9.000
Writing occupation numbers to disk ...
---- Fractional Occupation Number Information End ----

  191   -1111.1420559088      7.82E-02

---- Fractional Occupation Number Information ----
Temperature =    300.000 K
Fermi level =  -0.313000 Hartree
HOMO-LUMO gap =   0.080072 Hartree
Number of active orbitals = 18
Number of active electrons = 9
EMax =   3.57e-02
thresh =   1.00e-06
Generating Pseudo-Fermi distribution of occupation numbers.
--
# Rescaled active electrons =      9.000
Writing occupation numbers to disk ...
---- Fractional Occupation Number Information End ----


---- Fractional Occupation Number Information ----
Temperature =    300.000 K
Fermi level =  -0.322199 Hartree
HOMO-LUMO gap =   0.038165 Hartree
Number of active orbitals = 18
Number of active electrons = 9
EMax =   3.57e-02
thresh =   1.00e-06
Generating Pseudo-Fermi distribution of occupation numbers.
--
# Rescaled active electrons =      9.000
Writing occupation numbers to disk ...
---- Fractional Occupation Number Information End ----

  192   -1116.3351970881      3.57E-02

---- Fractional Occupation Number Information ----
Temperature =    300.000 K
Fermi level =  -0.313406 Hartree
HOMO-LUMO gap =   0.080167 Hartree
Number of active orbitals = 18
Number of active electrons = 9
EMax =   2.99e-02
thresh =   1.00e-06
Generating Pseudo-Fermi distribution of occupation numbers.
--
# Rescaled active electrons =      9.000
Writing occupation numbers to disk ...
---- Fractional Occupation Number Information End ----


---- Fractional Occupation Number Information ----
Temperature =    300.000 K
Fermi level =  -0.320529 Hartree
HOMO-LUMO gap =   0.039046 Hartree
Number of active orbitals = 18
Number of active electrons = 9
EMax =   2.99e-02
thresh =   1.00e-06
Generating Pseudo-Fermi distribution of occupation numbers.
--
# Rescaled active electrons =      9.000
Writing occupation numbers to disk ...
---- Fractional Occupation Number Information End ----

  193   -1107.4320043055      2.99E-02

---- Fractional Occupation Number Information ----
Temperature =    300.000 K
Fermi level =  -0.310473 Hartree
HOMO-LUMO gap =   0.078893 Hartree
Number of active orbitals = 18
Number of active electrons = 9
EMax =   6.28e-03
thresh =   1.00e-06
Generating Pseudo-Fermi distribution of occupation numbers.
--
# Rescaled active electrons =      9.000
Writing occupation numbers to disk ...
---- Fractional Occupation Number Information End ----


---- Fractional Occupation Number Information ----
Temperature =    300.000 K
Fermi level =  -0.317696 Hartree
HOMO-LUMO gap =   0.038285 Hartree
Number of active orbitals = 18
Number of active electrons = 9
EMax =   6.28e-03
thresh =   1.00e-06
Generating Pseudo-Fermi distribution of occupation numbers.
--
# Rescaled active electrons =      9.000
Writing occupation numbers to disk ...
---- Fractional Occupation Number Information End ----

  194   -1102.1869500598      6.28E-03

---- Fractional Occupation Number Information ----
Temperature =    300.000 K
Fermi level =  -0.309078 Hartree
HOMO-LUMO gap =   0.078867 Hartree
Number of active orbitals = 18
Number of active electrons = 9
EMax =   1.16e-02
thresh =   1.00e-06
Generating Pseudo-Fermi distribution of occupation numbers.
--
# Rescaled active electrons =      9.000
Writing occupation numbers to disk ...
---- Fractional Occupation Number Information End ----


---- Fractional Occupation Number Information ----
Temperature =    300.000 K
Fermi level =  -0.310242 Hartree
HOMO-LUMO gap =   0.040470 Hartree
Number of active orbitals = 18
Number of active electrons = 9
EMax =   1.16e-02
thresh =   1.00e-06
Generating Pseudo-Fermi distribution of occupation numbers.
--
# Rescaled active electrons =      9.000
Writing occupation numbers to disk ...
---- Fractional Occupation Number Information End ----

  195   -1100.8961502786      1.16E-02

---- Fractional Occupation Number Information ----
Temperature =    300.000 K
Fermi level =  -0.308405 Hartree
HOMO-LUMO gap =   0.078010 Hartree
Number of active orbitals = 18
Number of active electrons = 9
EMax =   1.05e-01
thresh =   1.00e-06
Generating Pseudo-Fermi distribution of occupation numbers.
--
# Rescaled active electrons =      9.000
Writing occupation numbers to disk ...
---- Fractional Occupation Number Information End ----


---- Fractional Occupation Number Information ----
Temperature =    300.000 K
Fermi level =  -0.309373 Hartree
HOMO-LUMO gap =   0.040555 Hartree
Number of active orbitals = 18
Number of active electrons = 9
EMax =   1.05e-01
thresh =   1.00e-06
Generating Pseudo-Fermi distribution of occupation numbers.
--
# Rescaled active electrons =      9.000
Writing occupation numbers to disk ...
---- Fractional Occupation Number Information End ----

  196   -1093.7587853698      1.05E-01

---- Fractional Occupation Number Information ----
Temperature =    300.000 K
Fermi level =  -0.308695 Hartree
HOMO-LUMO gap =   0.078015 Hartree
Number of active orbitals = 18
Number of active electrons = 9
EMax =   9.33e-02
thresh =   1.00e-06
Generating Pseudo-Fermi distribution of occupation numbers.
--
# Rescaled active electrons =      9.000
Writing occupation numbers to disk ...
---- Fractional Occupation Number Information End ----


---- Fractional Occupation Number Information ----
Temperature =    300.000 K
Fermi level =  -0.309435 Hartree
HOMO-LUMO gap =   0.040523 Hartree
Number of active orbitals = 18
Number of active electrons = 9
EMax =   9.33e-02
thresh =   1.00e-06
Generating Pseudo-Fermi distribution of occupation numbers.
--
# Rescaled active electrons =      9.000
Writing occupation numbers to disk ...
---- Fractional Occupation Number Information End ----

  197   -1094.8380245302      9.33E-02

---- Fractional Occupation Number Information ----
Temperature =    300.000 K
Fermi level =  -0.307188 Hartree
HOMO-LUMO gap =   0.077677 Hartree
Number of active orbitals = 18
Number of active electrons = 9
EMax =   8.88e-02
thresh =   1.00e-06
Generating Pseudo-Fermi distribution of occupation numbers.
--
# Rescaled active electrons =      9.000
Writing occupation numbers to disk ...
---- Fractional Occupation Number Information End ----


---- Fractional Occupation Number Information ----
Temperature =    300.000 K
Fermi level =  -0.308285 Hartree
HOMO-LUMO gap =   0.040137 Hartree
Number of active orbitals = 18
Number of active electrons = 9
EMax =   8.88e-02
thresh =   1.00e-06
Generating Pseudo-Fermi distribution of occupation numbers.
--
# Rescaled active electrons =      9.000
Writing occupation numbers to disk ...
---- Fractional Occupation Number Information End ----

  198   -1095.4344386805      8.88E-02

---- Fractional Occupation Number Information ----
Temperature =    300.000 K
Fermi level =  -0.307290 Hartree
HOMO-LUMO gap =   0.077803 Hartree
Number of active orbitals = 18
Number of active electrons = 9
EMax =   9.41e-02
thresh =   1.00e-06
Generating Pseudo-Fermi distribution of occupation numbers.
--
# Rescaled active electrons =      9.000
Writing occupation numbers to disk ...
---- Fractional Occupation Number Information End ----


---- Fractional Occupation Number Information ----
Temperature =    300.000 K
Fermi level =  -0.308599 Hartree
HOMO-LUMO gap =   0.040051 Hartree
Number of active orbitals = 18
Number of active electrons = 9
EMax =   9.41e-02
thresh =   1.00e-06
Generating Pseudo-Fermi distribution of occupation numbers.
--
# Rescaled active electrons =      9.000
Writing occupation numbers to disk ...
---- Fractional Occupation Number Information End ----

  199   -1095.0588403407      9.41E-02

---- Fractional Occupation Number Information ----
Temperature =    300.000 K
Fermi level =  -0.306797 Hartree
HOMO-LUMO gap =   0.076886 Hartree
Number of active orbitals = 18
Number of active electrons = 9
EMax =   8.91e-02
thresh =   1.00e-06
Generating Pseudo-Fermi distribution of occupation numbers.
--
# Rescaled active electrons =      9.000
Writing occupation numbers to disk ...
---- Fractional Occupation Number Information End ----


---- Fractional Occupation Number Information ----
Temperature =    300.000 K
Fermi level =  -0.306935 Hartree
HOMO-LUMO gap =   0.040647 Hartree
Number of active orbitals = 18
Number of active electrons = 9
EMax =   8.91e-02
thresh =   1.00e-06
Generating Pseudo-Fermi distribution of occupation numbers.
--
# Rescaled active electrons =      9.000
Writing occupation numbers to disk ...
---- Fractional Occupation Number Information End ----

  200   -1095.4490453739      8.91E-02    Convergence failure

 Q-Chem fatal error occurred in module /project/projectdirs/jcesr/qchem/qc44/cnl_qc441/compile/cori/qc_src/scfman/scfman.C, line 4525:

 SCF failed to converge

