srun -N 1 --ntasks-per-node 16 --nodelist nid01047 /global/project/projectdirs/jcesr/qchem/qc44/cnl_qc441/dist/exe/qcprog.cori.exe .pt_charged_dft_40.0.in.20585.qcin.1 /dev/shm/eg_qchem/qchem20585/
Process 1 of 16 is on nid01047 - thread support 0
Process 2 of 16 is on nid01047 - thread support 0
Process 3 of 16 is on nid01047 - thread support 0
Process 4 of 16 is on nid01047 - thread support 0
Process 5 of 16 is on nid01047 - thread support 0
Process 6 of 16 is on nid01047 - thread support 0
Process 0 of 16 is on nid01047 - thread support 0
Process 15 of 16 is on nid01047 - thread support 0
initial socket setup ...start
initial socket setup ...done 
now start server 0 ... 
nid01047 10.128.4
Q-Chem Developer Version! Running on 10.128.4.*
                  Welcome to Q-Chem
     A Quantum Leap Into The Future Of Chemistry


 Q-Chem 4.4, Q-Chem, Inc., Pleasanton, CA (2016)

 Y. Shao,  Z. Gan,  E. Epifanovsky,  A. T. B. Gilbert,  M. Wormit,  
 J. Kussmann,  A. W. Lange,  A. Behn,  J. Deng,  X. Feng,  D. Ghosh,  
 M. Goldey,  P. R. Horn,  L. D. Jacobson,  I. Kaliman,  F.Rob,  
 R. Z. Khaliullin,  T. Kus,  A. Landau,  J. Liu,  E. I. Proynov,  Y. M. Rhee,  
 R. M. Richard,  M. A. Rohrdanz,  R. P. Steele,  E. J. Sundstrom,  
 H. L. Woodcock III,  P. M. Zimmerman,  D. Zuev,  B. Albrecht,  E. Alguire,  
 B. Austin,  S. A. Baeppler,  G. J. O. Beran,  Y. A. Bernard,  E. Berquist,  
 K. Brandhorst,  K. B. Bravaya,  S. T. Brown,  D. Casanova,  C.-M. Chang,  
 Y. Chen,  S. H. Chien,  K. D. Closser,  M. P. Coons,  D. L. Crittenden,  
 S. Dasgupta,  M. Diedenhofen,  R. A. DiStasio Jr.,  H. Do,  A. D. Dutoi,  
 R. G. Edgar,  P.-T. Fang,  S. Fatehi,  Q. Feng,  L. Fusti-Molnar,  
 A. Ghysels,  A. Golubeva-Zadorozhnaya,  J. Gomes,  A. Gunina,  
 M. W. D. Hanson-Heine,  P. H. P. Harbach,  A. W. Hauser,  E. G. Hohenstein,  
 Z. C. Holden,  K. Hui,  T.-C. Jagau,  H. Ji,  B. Kaduk,  K. Khistyaev,  
 Jaehoon Kim,  Jihan Kim,  R. A. King,  P. Klunzinger,  D. Kosenkov,  
 T. Kowalczyk,  C. M. Krauter,  A. Kunitsa,  K. U. Lao,  A. Laurent,  
 K. V. Lawler,  D. Lefrancois,  S. Lehtola,  S. V. Levchenko,  C. Y. Lin,  
 Y.-S. Lin,  F. Liu,  E. Livshits,  R. C. Lochan,  A. Luenser,  P. Manohar,  
 S. F. Manzer,  S.-P. Mao,  Y. Mao,  N. Mardirossian,  A. V. Marenich,  
 L. A. Martinez-Martinez,  S. A. Maurer,  N. J. Mayhall,  J.-M. Mewes,  
 A. F. Morrison,  K. Nanda,  C. M. Oana,  R. Olivares-Amaya,  D. P. O'Neill,  
 J. A. Parkhill,  T. M. Perrine,  R. Peverati,  P. A. Pieniazek,  F. Plasser,  
 A. Prociuk,  D. R. Rehn,  E. Rosta,  N. J. Russ,  N. Sergueev,  
 S. M. Sharada,  S. Sharma,  D. W. Small,  A. Sodt,  T. Stauch,  T. Stein,  
 D. Stuck,  Y.-C. Su,  A. J. W. Thom,  T. Tsuchimochi,  L. Vogt,  O. Vydrov,  
 T. Wang,  M. A. Watson,  J. Wenzel,  A. White,  C. F. Williams,  
 V. Vanovschi,  S. Yeganeh,  S. R. Yost,  Z.-Q. You,  I. Y. Zhang,  X. Zhang,  
 Y. Zhao,  B. R. Brooks,  G. K. L. Chan,  D. M. Chipman,  C. J. Cramer,  
 W. A. Goddard III,  M. S. Gordon,  W. J. Hehre,  A. Klamt,  
 H. F. Schaefer III,  M. W. Schmidt,  C. D. Sherrill,  D. G. Truhlar,  
 A. Warshel,  X. Xu,  A. Aspuru-Guzik,  R. Baer,  A. T. Bell,  N. A. Besley,  
 J.-D. Chai,  A. Dreuw,  B. D. Dunietz,  T. R. Furlani,  S. R. Gwaltney,  
 C.-P. Hsu,  Y. Jung,  J. Kong,  D. S. Lambrecht,  W. Liang,  C. Ochsenfeld,  
 V. A. Rassolov,  L. V. Slipchenko,  J. E. Subotnik,  T. Van Voorhis,  
 J. M. Herbert,  A. I. Krylov,  P. M. W. Gill,  M. Head-Gordon

 Contributors to earlier versions of Q-Chem not listed above: 
 R. D. Adamson,  J. Baker,  E. F. C. Byrd,  A. K. Chakraborty,  C.-L. Cheng,  
 H. Dachsel,  R. J. Doerksen,  G. Hawkins,  A. Heyden,  S. Hirata,  
 G. Kedziora,  F. J. Keil,  C. Kelley,  P. P. Korambath,  W. Kurlancheek,  
 A. M. Lee,  M. S. Lee,  D. Liotard,  I. Lotan,  P. E. Maslen,  N. Nair,  
 D. Neuhauser,  R. Olson,  B. Peters,  J. Ritchie,  N. E. Schultz,  
 N. Shenvi,  A. C. Simmonett,  K. S. Thanthiriwatte,  Q. Wu,  W. Zhang

 Please cite Q-Chem as follows:
 Y. Shao et al., Mol. Phys. 113, 184-215 (2015)
 DOI: 10.1080/00268976.2014.952696

 Q-Chem 4.4.1 for Intel X86 EM64T Linux

 Parts of Q-Chem use Armadillo 5.200.1 (Boston Tea Smuggler).
 http://arma.sourceforge.net/

 Q-Chem begins on Tue Sep  6 23:30:04 2016  

Host: nid01047
0

     Scratch files written to /dev/shm/eg_qchem/qchem20585.0//
 Parallel job on  16  processors

Checking the input file for inconsistencies... 	...done.

--------------------------------------------------------------
User input:
--------------------------------------------------------------
$comment
<SCF Fix Strategy>{
    "current_method_id": 2, 
    "methods": [
        "increase_iter", 
        "rca_diis", 
        "gwh", 
        "gdm", 
        "rca", 
        "core+rca", 
        "fon"
    ], 
    "version": 2.0
}</SCF Fix Strategy>
$end


$molecule
 -1  2
 S           1.83794975       -1.27576249       -0.14871336
 C           3.23937819       -0.19806434       -0.14823333
 C           2.83626844        1.12431397       -0.14890172
 C           1.43724334        1.31134696       -0.14931220
 C           0.69606563        0.10654716       -0.14908151
 H           0.95807640        2.28459073       -0.14860036
 C          -0.69610330       -0.10652413       -0.14907621
 S          -1.42677734       -1.41096200        0.84048769
 C          -1.72549730        0.57181178       -0.84268661
 C          -3.05610471       -0.99962343        0.29137196
 C          -3.01855008        0.06644718       -0.58798317
 H          -3.91597582        0.47839423       -1.04371346
 H           4.24016475       -0.60708034       -0.14954918
 H           3.54430111        1.94981573       -0.14910914
 H          -3.90856350       -1.55974536        0.64976705
 H          -1.52262977        1.40384163       -1.50855146
$end


$rem
         jobtype = opt
        exchange = b3lyp
           basis = 6-31++g**
  max_scf_cycles = 200
      mem_static = 100
       mem_total = 1500
   scf_algorithm = diis
       scf_guess = gwh
$end


$opt
CONSTRAINT
tors 4 5 7 9 40.0
ENDCONSTRAINT
$end

--------------------------------------------------------------
 Atom   8: ( -1.6465800734,  0.4500935711,  1.0985471933)
         ->( -1.6465800782,  0.4500935277,  1.0985472053)
 Atom  10: ( -3.1796005048,  0.0857568317,  0.2969598431)
         ->( -3.1796005244,  0.0857570164,  0.2969597656)
 Atom  11: ( -2.9596057938, -0.3720580606, -0.9888045956)
         ->( -2.9596057785, -0.3720581464, -0.9888045598)
 Atom   9: ( -1.6001440526, -0.4440621663, -1.3615402878)
         ->( -1.6001440391, -0.4440621724, -1.3615403074)
 Atom   7: ( -0.7034240550, -0.0328333045, -0.3477991620)
         ->( -0.7034240580, -0.0328332097, -0.3477992039)
 Atom  16: ( -1.2575495059, -0.7831612938, -2.3333662304)
         ->( -1.2575494742, -0.7831612125, -2.3333662713)
 Atom  14: (  3.7721783965,  0.6526505993, -1.6549555010)
         ->(  3.7721784013,  0.6526503237, -1.6549556051)
 Atom  15: ( -4.1149044002,  0.2337180754,  0.8186721193)
         ->( -4.1149043967,  0.2337178383,  0.8186721576)
 ----------------------------------------------------------------
             Standard Nuclear Orientation (Angstroms)
    I     Atom           X                Y                Z
 ----------------------------------------------------------------
    1      S       1.6465800782    -0.4500935277     1.0985472053
    2      C       3.1796005244    -0.0857570164     0.2969597656
    3      C       2.9596057785     0.3720581464    -0.9888045598
    4      C       1.6001440391     0.4440621724    -1.3615403074
    5      C       0.7034240580     0.0328332097    -0.3477992039
    6      H       1.2575494742     0.7831612125    -2.3333662713
    7      C      -0.7034240580    -0.0328332097    -0.3477992039
    8      S      -1.6465800782     0.4500935277     1.0985472053
    9      C      -1.6001440391    -0.4440621724    -1.3615403074
   10      C      -3.1796005244     0.0857570164     0.2969597656
   11      C      -2.9596057785    -0.3720581464    -0.9888045598
   12      H      -3.7721784013    -0.6526503237    -1.6549556051
   13      H       4.1149043967    -0.2337178383     0.8186721576
   14      H       3.7721784013     0.6526503237    -1.6549556051
   15      H      -4.1149043967     0.2337178383     0.8186721576
   16      H      -1.2575494742    -0.7831612125    -2.3333662713
 ----------------------------------------------------------------
 Molecular Point Group                 C2    NOp =  2
 Largest Abelian Subgroup              C2    NOp =  2
 Nuclear Repulsion Energy =   626.2567748434 hartrees
 There are       44 alpha and       43 beta electrons
 Requested basis set is 6-31++G(d,p)
 There are 76 shells and 234 basis functions

 Total QAlloc Memory Limit   1500 MB
 Mega-Array Size        98 MB
 MEM_STATIC part       100 MB
 A cutoff of  1.0D-11 yielded   2485 shell pairs
 There are     24495 function pairs
 
 -------------------------------------------------------
 OpenMP Integral Computing Module                       
 Release: version 1.0, May 2013, Q-Chem Inc. Pittsburgh 
 -------------------------------------------------------
 Integral Job Info:
 Integral job number is                      11
 Integral operator is                         1
 short-range coefficients                     0
 long-range coefficients              100000000
 Omega coefficients                           0
 if combine SR and LR in K                    0
 Integral screening is                        0
 Integral computing path is                   2
 max size of driver memory is            800000
 size of driver memory is                593474
 size of scratch memory is             15166112
 max col of scratch BK array               1296
 max len of scratch array in speh3          155
 max len of scratch index in speh4           18
 max int batch size is                      520
 min int batch size is                       52
 fixed nKL is                                52
 max L of basis functions is                  2
 order of int derivative is                   0
 number of shells is                         76
 number of basis is                         234
 number of cartesian basis is               234
 number of contracted shell pairs          2485
 number of primitive shell pairs           8031
 maxK2 (contraction) of shell pair           36
 max number of K2 of shell pair               1
 max number of CS2 of shell pair            258
 max number of PS2 of shell pair           1500
 mem total for path MDJ                   51378
 -------------------------------------------------------
 Smallest overlap matrix eigenvalue = 9.16E-07

 Q-Chem warning in module /project/projectdirs/jcesr/qchem/qc44/cnl_qc441/compile/cori/qc_src/stvman/mkSTV.C, line 257:

 Overlap eigenvalue is smaller than square root of threshold

 Linear dependence detected in AO basis
 Number of orthogonalized atomic orbitals = 233
 Maximum deviation from orthogonality = 7.643E-11

 Scale SEOQF with 1.000000e-01/1.000000e-01/1.000000e-01

 Standard Electronic Orientation quadrupole field applied
 Nucleus-field energy     =     0.0000000058 hartrees
 Constructing guess Fock matrix from core Hamiltonian
 Applying Wolfsberg-Helmholtz approximation
 An unrestricted hybrid HF-DFT SCF calculation will be
 performed using Pulay DIIS extrapolation
 Exchange:     0.2000 Hartree-Fock + 0.0800 Slater + 0.7200 B88
 Correlation:  0.1900 VWN1RPA + 0.8100 LYP
 Using SG-1 standard quadrature grid
 SCF converges when DIIS error is below 1.0E-08
 ---------------------------------------
  Cycle       Energy         DIIS Error
 ---------------------------------------
    1   -1087.9174923290      6.55E-02
    2   -1067.6851479885      4.44E-02
    3   -1018.2214897579      9.03E-02
    4   -1067.8054257873      6.30E-02
    5   -1090.5069650742      4.37E-02
    6   -1096.3345743846      3.25E-02
    7   -1101.2008546164      2.09E-02
    8   -1103.2929683782      1.30E-02
    9   -1104.4694043981      6.71E-03
   10   -1104.6929630454      4.41E-03
   11   -1104.8339951930      5.79E-04
   12   -1104.8367208274      1.41E-04
   13   -1104.8368946641      5.50E-05
   14   -1104.8369412378      2.16E-05
   15   -1104.8369512904      9.72E-06
   16   -1104.8369575202      3.10E-06
   17   -1104.8369620515      1.18E-06
   18   -1104.8369624656      7.25E-07
   19   -1104.8369634968      2.08E-07
   20   -1104.8369615984      1.41E-07
   21   -1104.8369613304      6.61E-08
   22   -1104.8369628607      3.64E-08
   23   -1104.8369627528      5.42E-08
   24   -1104.8369619164      8.29E-08
   25   -1104.8369613570      1.33E-07
   26   -1104.8369643832      1.33E-07
   27   -1104.8369642473      1.19E-07
   28   -1104.8369642268      1.18E-07
   29   -1104.8369638796      9.60E-08
   30   -1104.8369638554      9.20E-08
   31   -1104.8369626838      6.67E-08
   32   -1104.8369621114      1.66E-08
   33   -1104.8369614519      4.79E-08
   34   -1104.8369622741      2.51E-08
   35   -1104.8369622891      3.24E-08
   36   -1104.8369621301      1.91E-08
   37   -1104.8369620083      3.45E-08
   38   -1104.8369617540      2.30E-08
   39   -1104.8369619919      4.02E-08
   40   -1104.8369609547      1.77E-08
   41   -1104.8369596687      3.70E-08
   42   -1104.8369601402      4.20E-08
   43   -1104.8369598330      7.42E-08
   44   -1104.8369596014      7.31E-08
   45   -1104.8369591837      8.62E-08
   46   -1104.8369589543      9.81E-08
   47   -1104.8369581657      1.31E-07
   48   -1104.8369584312      8.00E-08
   49   -1104.8369608566      4.49E-08
   50   -1104.8369608310      2.45E-08
   51   -1104.8369605073      1.82E-08
   52   -1104.8369604839      2.20E-08
   53   -1104.8369599336      7.52E-08
   54   -1104.8369599010      4.90E-08
   55   -1104.8369596480      3.33E-08
   56   -1104.8369608543      4.09E-08
   57   -1104.8369614843      1.64E-08
   58   -1104.8369621532      1.95E-08
   59   -1104.8369626107      7.06E-08
   60   -1104.8369618868      5.16E-08
   61   -1104.8369614706      2.24E-08
   62   -1104.8369610783      8.96E-09 Convergence criterion met
 ---------------------------------------
 <S^2> = 0.7622
 SCF time:  CPU 30.07 s  wall 26.03 s
 SCF   energy in the final basis set = -1104.8369610783
 Total energy in the final basis set = -1104.8369610783
 
 --------------------------------------------------------------
             Orbital Energies (a.u.) and Symmetries
 --------------------------------------------------------------
 
 Alpha MOs, Unrestricted
 -- Occupied --                  
-88.749 -88.749 -10.063 -10.062 -10.056 -10.056 -10.048 -10.048
  1 B     1 A     2 A     2 B     3 B     3 A     4 A     4 B                  
-10.035 -10.035  -7.808  -7.808  -5.772  -5.772  -5.769  -5.769
  5 B     5 A     6 B     6 A     7 A     7 B     8 B     8 A                  
 -5.765  -5.765  -0.723  -0.701  -0.605  -0.579  -0.571  -0.536
  9 A     9 B    10 A    10 B    11 A    12 A    11 B    12 B                  
 -0.447  -0.412  -0.396  -0.369  -0.362  -0.314  -0.260  -0.253
 13 A    14 A    13 B    14 B    15 A    15 B    16 A    17 A                  
 -0.249  -0.241  -0.237  -0.209  -0.207  -0.193  -0.180  -0.115
 16 B    17 B    18 A    19 A    18 B    20 A    19 B    20 B                  
 -0.105  -0.104  -0.056   0.054
 21 B    21 A    22 A    22 B                                                  
 -- Virtual --                   
  0.093   0.097   0.109   0.114   0.123   0.133   0.140   0.151
 23 A    23 B    24 A    24 B    25 A    26 A    25 B    27 A                  
  0.153   0.159   0.169   0.174   0.175   0.177   0.186   0.194
 28 A    26 B    27 B    29 A    28 B    30 A    29 B    31 A                  
  0.202   0.205   0.208   0.215   0.217   0.222   0.230   0.230
 30 B    32 A    31 B    32 B    33 A    34 A    35 A    33 B                  
  0.233   0.235   0.243   0.246   0.249   0.257   0.261   0.270
 34 B    36 A    37 A    35 B    38 A    36 B    39 A    37 B                  
  0.274   0.277   0.281   0.292   0.292   0.301   0.303   0.304
 40 A    38 B    39 B    41 A    40 B    42 A    41 B    43 A                  
  0.317   0.324   0.328   0.336   0.338   0.343   0.359   0.372
 42 B    44 A    43 B    45 A    44 B    46 A    45 B    46 B                  
  0.384   0.385   0.393   0.397   0.405   0.442   0.448   0.448
 47 B    47 A    48 A    48 B    49 A    50 A    51 A    49 B                  
  0.456   0.461   0.487   0.488   0.513   0.535   0.566   0.594
 50 B    52 A    53 A    51 B    52 B    54 A    53 B    55 A                  
  0.612   0.651   0.674   0.676   0.700   0.706   0.713   0.758
 56 A    54 B    57 A    55 B    56 B    57 B    58 A    59 A                  
  0.763   0.771   0.804   0.814   0.820   0.834   0.843   0.864
 58 B    60 A    61 A    59 B    60 B    62 A    63 A    61 B                  
  0.869   0.874   0.890   0.897   0.905   0.905   0.936   0.942
 64 A    62 B    65 A    63 B    66 A    64 B    65 B    67 A                  
  0.977   0.986   1.008   1.037   1.057   1.095   1.101   1.103
 66 B    68 A    67 B    69 A    68 B    70 A    69 B    70 B                  
  1.109   1.116   1.116   1.122   1.136   1.146   1.157   1.196
 71 A    72 A    71 B    72 B    73 A    73 B    74 A    75 A                  
  1.200   1.220   1.237   1.243   1.262   1.269   1.270   1.321
 74 B    76 A    75 B    77 A    78 A    76 B    77 B    79 A                  
  1.322   1.340   1.385   1.415   1.484   1.507   1.511   1.514
 78 B    80 A    79 B    81 A    80 B    82 A    81 B    83 A                  
  1.522   1.543   1.603   1.640   1.655   1.710   1.741   1.836
 82 B    84 A    83 B    84 B    85 A    86 A    85 B    86 B                  
  1.844   1.892   1.978   2.002   2.042   2.048   2.059   2.089
 87 A    87 B    88 A    89 A    90 A    88 B    89 B    91 A                  
  2.103   2.114   2.167   2.169   2.211   2.217   2.278   2.289
 92 A    90 B    91 B    93 A    94 A    92 B    95 A    93 B                  
  2.314   2.339   2.369   2.406   2.412   2.452   2.515   2.516
 94 B    96 A    95 B    97 A    96 B    98 A    99 A    97 B                  
  2.577   2.597   2.618   2.622   2.645   2.665   2.674   2.696
 98 B   100 A    99 B   101 A   100 B   102 A   101 B   103 A                  
  2.734   2.742   2.750   2.821   2.842   2.867   2.931   2.944
104 A   102 B   105 A   103 B   104 B   106 A   107 A   105 B                  
  3.007   3.061   3.130   3.292   3.362   3.418   3.420   3.557
108 A   106 B   107 B   109 A   108 B   109 B   110 A   111 A                  
  3.579   3.862   3.893   4.109   4.158   4.425   4.456   4.464
110 B   112 A   111 B   113 A   112 B   114 A   113 B   115 A                  
  4.478   4.578   4.683   4.807   4.882
114 B   116 A   115 B   117 A   116 B                                          
 
 Beta MOs, Unrestricted
 -- Occupied --                  
-88.748 -88.748 -10.061 -10.060 -10.053 -10.053 -10.049 -10.049
  1 B     1 A     2 A     2 B     3 B     3 A     4 A     4 B                  
-10.033 -10.033  -7.807  -7.807  -5.772  -5.772  -5.769  -5.769
  5 B     5 A     6 B     6 A     7 A     7 B     8 B     8 A                  
 -5.763  -5.763  -0.719  -0.698  -0.600  -0.576  -0.568  -0.531
  9 A     9 B    10 A    10 B    11 A    12 A    11 B    12 B                  
 -0.440  -0.410  -0.392  -0.367  -0.360  -0.313  -0.258  -0.251
 13 A    14 A    13 B    14 B    15 A    15 B    16 A    17 A                  
 -0.246  -0.234  -0.233  -0.204  -0.200  -0.190  -0.177  -0.102
 16 B    18 A    17 B    18 B    19 A    20 A    19 B    20 B                  
 -0.096  -0.094  -0.039
 21 A    21 B    22 A                                                          
 -- Virtual --                   
  0.093   0.096   0.107   0.109   0.114   0.123   0.140   0.142
 23 A    22 B    23 B    24 A    24 B    25 A    25 B    26 A                  
  0.151   0.157   0.159   0.171   0.176   0.177   0.177   0.188
 27 A    28 A    26 B    27 B    29 A    28 B    30 A    29 B                  
  0.198   0.203   0.205   0.208   0.217   0.217   0.222   0.230
 31 A    30 B    32 A    31 B    32 B    33 A    34 A    33 B                  
  0.231   0.234   0.236   0.244   0.247   0.251   0.259   0.263
 35 A    34 B    36 A    37 A    35 B    38 A    36 B    39 A                  
  0.271   0.275   0.278   0.282   0.293   0.294   0.301   0.305
 37 B    40 A    38 B    39 B    40 B    41 A    42 A    41 B                  
  0.308   0.317   0.324   0.328   0.337   0.340   0.344   0.360
 43 A    42 B    44 A    43 B    45 A    44 B    46 A    45 B                  
  0.373   0.385   0.385   0.393   0.398   0.405   0.444   0.450
 46 B    47 B    47 A    48 A    48 B    49 A    50 A    49 B                  
  0.452   0.458   0.461   0.487   0.488   0.517   0.536   0.568
 51 A    50 B    52 A    53 A    51 B    52 B    54 A    53 B                  
  0.595   0.614   0.653   0.676   0.678   0.702   0.708   0.716
 55 A    56 A    54 B    57 A    55 B    56 B    57 B    58 A                  
  0.760   0.765   0.772   0.814   0.818   0.831   0.838   0.846
 59 A    58 B    60 A    61 A    59 B    60 B    62 A    63 A                  
  0.866   0.873   0.877   0.892   0.902   0.907   0.910   0.938
 61 B    64 A    62 B    65 A    63 B    64 B    66 A    65 B                  
  0.943   0.984   0.993   1.014   1.039   1.059   1.097   1.103
 67 A    66 B    68 A    67 B    69 A    68 B    70 A    69 B                  
  1.104   1.114   1.116   1.118   1.123   1.137   1.147   1.160
 70 B    71 A    72 A    71 B    72 B    73 A    73 B    74 A                  
  1.198   1.202   1.224   1.241   1.245   1.264   1.272   1.274
 75 A    74 B    76 A    75 B    77 A    78 A    76 B    77 B                  
  1.323   1.325   1.343   1.388   1.418   1.487   1.511   1.516
 78 B    79 A    80 A    79 B    81 A    80 B    82 A    81 B                  
  1.519   1.525   1.546   1.605   1.643   1.657   1.716   1.745
 83 A    82 B    84 A    83 B    84 B    85 A    86 A    85 B                  
  1.845   1.854   1.901   1.981   2.004   2.046   2.050   2.061
 86 B    87 A    87 B    88 A    89 A    90 A    88 B    89 B                  
  2.091   2.108   2.119   2.171   2.172   2.215   2.218   2.286
 91 A    92 A    90 B    91 B    93 A    94 A    92 B    95 A                  
  2.297   2.320   2.348   2.376   2.410   2.416   2.456   2.517
 93 B    94 B    96 A    95 B    97 A    96 B    98 A    99 A                  
  2.518   2.581   2.600   2.619   2.625   2.647   2.667   2.679
 97 B    98 B   100 A    99 B   101 A   100 B   102 A   101 B                  
  2.700   2.737   2.746   2.755   2.822   2.845   2.870   2.934
103 A   104 A   102 B   105 A   103 B   104 B   106 A   107 A                  
  2.947   3.009   3.063   3.132   3.292   3.363   3.419   3.420
105 B   108 A   106 B   107 B   109 A   108 B   109 B   110 A                  
  3.558   3.580   3.863   3.894   4.111   4.159   4.430   4.460
111 A   110 B   112 A   111 B   113 A   112 B   114 A   113 B                  
  4.466   4.481   4.584   4.688   4.809   4.885
115 A   114 B   116 A   115 B   117 A   116 B                                  
 --------------------------------------------------------------
 
          Ground-State Mulliken Net Atomic Charges

     Atom                 Charge (a.u.)    Spin (a.u.)
  --------------------------------------------------------
      1 S                    -0.251117       0.125397
      2 C                    -0.109250       0.232488
      3 C                    -0.304654      -0.070159
      4 C                     0.096743       0.207612
      5 C                    -0.242403       0.017177
      6 H                     0.092356      -0.002315
      7 C                    -0.242403       0.017177
      8 S                    -0.251117       0.125397
      9 C                     0.096743       0.207612
     10 C                    -0.109250       0.232488
     11 C                    -0.304654      -0.070159
     12 H                     0.074157       0.003047
     13 H                     0.144168      -0.013247
     14 H                     0.074157       0.003047
     15 H                     0.144168      -0.013247
     16 H                     0.092356      -0.002315
  --------------------------------------------------------
  Sum of atomic charges =    -1.000000
  Sum of spin   charges =     1.000000

 -----------------------------------------------------------------
                    Cartesian Multipole Moments
 -----------------------------------------------------------------
    Charge (ESU x 10^10)
                -4.8032
    Dipole Moment (Debye)
         X      -0.0000      Y       0.0000      Z      -0.4134
       Tot       0.4134
    Quadrupole Moments (Debye-Ang)
        XX     -99.4014     XY       0.3953     YY     -86.8463
        XZ       0.0000     YZ      -0.0000     ZZ     -83.7752
    Octopole Moments (Debye-Ang^2)
       XXX      -0.0000    XXY       0.0000    XYY      -0.0000
       YYY       0.0000    XXZ       8.9791    XYZ      -5.2453
       YYZ       3.4391    XZZ      -0.0000    YZZ       0.0000
       ZZZ       1.2347
    Hexadecapole Moments (Debye-Ang^3)
      XXXX   -2473.1560   XXXY      -1.7567   XXYY    -489.5658
      XYYY      -9.4487   YYYY    -220.5952   XXXZ       0.0000
      XXYZ      -0.0000   XYYZ       0.0000   YYYZ      -0.0000
      XXZZ    -503.3647   XYZZ       3.8331   YYZZ    -146.1633
      XZZZ       0.0000   YZZZ      -0.0000   ZZZZ    -629.9818
 -----------------------------------------------------------------
 Calculating analytic gradient of the SCF energy
 Gradient of SCF Energy
            1           2           3           4           5           6
    1  -0.0038299   0.0007988  -0.0007486   0.0013562  -0.0055992   0.0007787
    2  -0.0024159   0.0003080   0.0035523   0.0056048  -0.0027772  -0.0017051
    3  -0.0013530  -0.0022384   0.0025804   0.0002997   0.0018530  -0.0007324
            7           8           9          10          11          12
    1   0.0055992   0.0038299  -0.0013562  -0.0007988   0.0007486   0.0000284
    2   0.0027772   0.0024159  -0.0056048  -0.0003080  -0.0035523   0.0003088
    3   0.0018530  -0.0013530   0.0002997  -0.0022384   0.0025804   0.0000706
           13          14          15          16
    1  -0.0001496  -0.0000284   0.0001495  -0.0007787
    2  -0.0021854  -0.0003088   0.0021854   0.0017051
    3  -0.0004798   0.0000706  -0.0004798  -0.0007324
 Max gradient component =       5.605E-03
 RMS gradient           =       2.354E-03
 Gradient time:  CPU 1.75 s  wall 1.76 s
 Geometry Optimization Parameters
   NAtoms,    NIC,     NZ,  NCons,   NDum,   NFix, NCnnct, MaxDiis
       16     111       0       1       0       0       0       0


** CONSTRAINED OPTIMIZATION IN DELOCALIZED INTERNAL COORDINATES **
   Searching for a Minimum

   Optimization Cycle:   1

                       Coordinates (Angstroms)
     ATOM                X               Y               Z
      1  S         1.6465800782   -0.4500935277    1.0985472053
      2  C         3.1796005244   -0.0857570164    0.2969597656
      3  C         2.9596057785    0.3720581464   -0.9888045598
      4  C         1.6001440391    0.4440621724   -1.3615403074
      5  C         0.7034240580    0.0328332097   -0.3477992039
      6  H         1.2575494742    0.7831612125   -2.3333662713
      7  C        -0.7034240580   -0.0328332097   -0.3477992039
      8  S        -1.6465800782    0.4500935277    1.0985472053
      9  C        -1.6001440391   -0.4440621724   -1.3615403074
     10  C        -3.1796005244    0.0857570164    0.2969597656
     11  C        -2.9596057785   -0.3720581464   -0.9888045598
     12  H        -3.7721784013   -0.6526503237   -1.6549556051
     13  H         4.1149043967   -0.2337178383    0.8186721576
     14  H         3.7721784013    0.6526503237   -1.6549556051
     15  H        -4.1149043967    0.2337178383    0.8186721576
     16  H        -1.2575494742   -0.7831612125   -2.3333662713
   Point Group: c2    Number of degrees of freedom:    22


   Energy is  -1104.836961078

              Constraints and their Current Values
                                        Value     Constraint
   Dihedral:        4   5   7   9       40.000       40.000

 Attempting to Generate Delocalized Internal Coordinates

 21 Hessian modes will be used to form the next step
  Hessian Eigenvalues:
     0.045000    0.045000    0.045000    0.045000    0.045000    0.045000
     0.160000    0.160000    0.160000    0.221184    0.237470    0.250000
     0.264210    0.283931    0.350974    0.354198    0.358566    0.414224
     0.425056    0.442595    0.471396

 Minimum Search - Taking Simple RFO Step
 Searching for Lamda that Minimizes Along All modes
 Value Taken    Lamda =  -0.00254934
 Step Taken.  Stepsize is  0.204524

                             Maximum     Tolerance    Cnvgd?
         Gradient           0.008764      0.000300      NO
         Displacement       0.158750      0.001200      NO
         Energy change     *********      0.000001      NO


 New Cartesian Coordinates Obtained by Inverse Iteration

 Displacement from previous Coordinates is:  0.372188
 ----------------------------------------------------------------
             Standard Nuclear Orientation (Angstroms)
    I     Atom           X                Y                Z
 ----------------------------------------------------------------
    1      S       1.6730305405    -0.4142565116     1.1234466739
    2      C       3.1952724158    -0.0653124209     0.2983970786
    3      C       2.9605670515     0.3303335598    -1.0065616222
    4      C       1.5953217026     0.4032211767    -1.3600670579
    5      C       0.7084757397     0.0130474462    -0.3331207731
    6      H       1.2373568578     0.7363742475    -2.3286038033
    7      C      -0.7084757397    -0.0130474462    -0.3331207731
    8      S      -1.6730305405     0.4142565116     1.1234466739
    9      C      -1.5953217026    -0.4032211767    -1.3600670579
   10      C      -3.1952724158     0.0653124209     0.2983970786
   11      C      -2.9605670515    -0.3303335598    -1.0065616222
   12      H      -3.7638730342    -0.6018026283    -1.6879070986
   13      H       4.1360813002    -0.1635563431     0.8221297834
   14      H       3.7638730342     0.6018026283    -1.6879070986
   15      H      -4.1360813002     0.1635563431     0.8221297834
   16      H      -1.2373568578    -0.7363742475    -2.3286038033
 ----------------------------------------------------------------
 Molecular Point Group                 C2    NOp =  2
 Largest Abelian Subgroup              C2    NOp =  2
 Nuclear Repulsion Energy =   624.8089735169 hartrees
 There are       44 alpha and       43 beta electrons
 Applying Cartesian multipole field
    Component          Value
    ---------          -----
     (2,0,0)        1.00000E-11
     (0,2,0)        2.00000E-11
     (0,0,2)       -3.00000E-11
 Nucleus-field energy     =     0.0000000056 hartrees
 Requested basis set is 6-31++G(d,p)
 There are 76 shells and 234 basis functions
 A cutoff of  1.0D-11 yielded   2483 shell pairs
 There are     24487 function pairs
 Smallest overlap matrix eigenvalue = 1.09E-06

 Q-Chem warning in module /project/projectdirs/jcesr/qchem/qc44/cnl_qc441/compile/cori/qc_src/stvman/mkSTV.C, line 257:

 Overlap eigenvalue is smaller than square root of threshold

 No. of orbitals has changed due to linear dependencies.  Generating new SCF guess.
 Constructing guess Fock matrix from core Hamiltonian
 Applying Wolfsberg-Helmholtz approximation
 An unrestricted hybrid HF-DFT SCF calculation will be
 performed using Pulay DIIS extrapolation
 Exchange:     0.2000 Hartree-Fock + 0.0800 Slater + 0.7200 B88
 Correlation:  0.1900 VWN1RPA + 0.8100 LYP
 Using SG-1 standard quadrature grid
 SCF converges when DIIS error is below 1.0E-08
 Geometry optimization detected.  Setting ReadMinima to 0
 Setting SaveMinima to 0
 ---------------------------------------
  Cycle       Energy         DIIS Error
 ---------------------------------------
    1   -1088.2920573096      6.49E-02
    2   -1068.5835070185      4.40E-02
    3   -1016.7240178094      9.17E-02
    4   -1067.4665716600      6.56E-02
    5   -1086.8781771672      4.79E-02
    6   -1095.4420342392      3.45E-02
    7   -1100.3769373788      2.33E-02
    8   -1102.8948534785      1.46E-02
    9   -1104.0708635770      9.31E-03
   10   -1104.7141176745      4.03E-03
   11   -1104.8048427793      2.10E-03
   12   -1104.8382952326      2.24E-04
   13   -1104.8386843914      1.17E-04
   14   -1104.8388029761      2.98E-05
   15   -1104.8388203708      7.89E-06
   16   -1104.8388279374      3.27E-06
   17   -1104.8388311562      1.58E-06
   18   -1104.8388320712      7.92E-07
   19   -1104.8388322169      4.40E-07
   20   -1104.8388322343      1.68E-07
   21   -1104.8388322388      4.08E-08
   22   -1104.8388322382      1.83E-08
   23   -1104.8388322378      1.06E-08
   24   -1104.8388322380      3.68E-09 Convergence criterion met
 ---------------------------------------
 <S^2> = 0.7623
 SCF time:  CPU 16.45 s  wall 14.67 s
 SCF   energy in the final basis set = -1104.8388322380
 Total energy in the final basis set = -1104.8388322380
 
 --------------------------------------------------------------
             Orbital Energies (a.u.) and Symmetries
 --------------------------------------------------------------
 
 Alpha MOs, Unrestricted
 -- Occupied --                  
-88.750 -88.750 -10.064 -10.064 -10.056 -10.056 -10.048 -10.048
  1 B     1 A     2 A     2 B     3 B     3 A     4 B     4 A                  
-10.035 -10.035  -7.809  -7.809  -5.773  -5.773  -5.770  -5.770
  5 B     5 A     6 B     6 A     7 B     7 A     8 B     8 A                  
 -5.766  -5.766  -0.722  -0.702  -0.604  -0.580  -0.571  -0.536
  9 A     9 B    10 A    10 B    11 A    12 A    11 B    12 B                  
 -0.446  -0.412  -0.396  -0.369  -0.362  -0.315  -0.261  -0.253
 13 A    14 A    13 B    14 B    15 A    15 B    16 A    17 A                  
 -0.249  -0.239  -0.237  -0.209  -0.209  -0.193  -0.179  -0.117
 16 B    17 B    18 A    19 A    18 B    20 A    19 B    20 B                  
 -0.106  -0.104  -0.056   0.053
 21 B    21 A    22 A    22 B                                                  
 -- Virtual --                   
  0.093   0.096   0.109   0.114   0.124   0.135   0.140   0.151
 23 A    23 B    24 A    24 B    25 A    26 A    25 B    27 A                  
  0.151   0.158   0.169   0.172   0.175   0.177   0.182   0.195
 28 A    26 B    27 B    29 A    28 B    30 A    29 B    31 A                  
  0.199   0.205   0.206   0.211   0.217   0.223   0.228   0.230
 30 B    31 B    32 A    32 B    33 A    34 A    33 B    35 A                  
  0.232   0.234   0.243   0.246   0.249   0.258   0.259   0.271
 34 B    36 A    37 A    35 B    38 A    36 B    39 A    37 B                  
  0.271   0.276   0.281   0.288   0.290   0.300   0.302   0.305
 40 A    38 B    39 B    40 B    41 A    41 B    42 A    43 A                  
  0.309   0.322   0.328   0.333   0.336   0.341   0.347   0.363
 42 B    44 A    43 B    45 A    44 B    46 A    45 B    46 B                  
  0.380   0.380   0.392   0.397   0.405   0.442   0.448   0.448
 47 B    47 A    48 B    48 A    49 A    50 A    49 B    51 A                  
  0.452   0.460   0.465   0.487   0.494   0.514   0.533   0.582
 50 B    52 A    51 B    53 A    52 B    53 B    54 A    54 B                  
  0.592   0.611   0.650   0.674   0.677   0.702   0.713   0.714
 55 A    56 A    55 B    57 A    56 B    57 B    58 A    58 B                  
  0.757   0.768   0.769   0.803   0.815   0.821   0.829   0.843
 59 A    60 A    59 B    61 A    60 B    61 B    62 A    63 A                  
  0.860   0.869   0.875   0.885   0.892   0.904   0.904   0.942
 62 B    64 A    63 B    65 A    64 B    66 A    65 B    67 A                  
  0.944   0.975   0.985   1.005   1.036   1.056   1.091   1.100
 66 B    67 B    68 A    68 B    69 A    69 B    70 A    70 B                  
  1.101   1.110   1.117   1.121   1.135   1.146   1.155   1.162
 71 B    71 A    72 A    72 B    73 A    73 B    74 A    74 B                  
  1.192   1.203   1.219   1.243   1.243   1.261   1.267   1.271
 75 A    75 B    76 A    77 A    76 B    78 A    77 B    78 B                  
  1.319   1.339   1.373   1.401   1.410   1.483   1.505   1.514
 79 A    80 A    79 B    80 B    81 A    81 B    82 A    82 B                  
  1.515   1.520   1.549   1.603   1.635   1.649   1.708   1.744
 83 A    83 B    84 A    84 B    85 B    85 A    86 A    86 B                  
  1.831   1.844   1.875   1.973   2.007   2.039   2.053   2.063
 87 B    87 A    88 B    88 A    89 A    90 A    89 B    90 B                  
  2.087   2.111   2.116   2.163   2.166   2.212   2.216   2.275
 91 A    92 A    91 B    93 A    92 B    93 B    94 A    95 A                  
  2.292   2.315   2.325   2.371   2.401   2.415   2.452   2.515
 94 B    95 B    96 A    96 B    97 A    97 B    98 A    99 A                  
  2.517   2.575   2.599   2.611   2.624   2.649   2.670   2.671
 98 B    99 B   100 A   101 A   100 B   101 B   102 A   102 B                  
  2.692   2.732   2.748   2.748   2.824   2.837   2.868   2.928
103 A   104 A   103 B   105 A   104 B   105 B   106 A   107 A                  
  2.945   3.009   3.055   3.125   3.291   3.359   3.418   3.418
106 B   108 A   107 B   108 B   109 A   109 B   110 B   110 A                  
  3.555   3.577   3.860   3.892   4.106   4.156   4.425   4.462
111 A   111 B   112 A   112 B   113 A   113 B   114 A   115 A                  
  4.480   4.491   4.574   4.688   4.805   4.877
114 B   115 B   116 A   116 B   117 A   117 B                                  
 
 Beta MOs, Unrestricted
 -- Occupied --                  
-88.749 -88.749 -10.062 -10.062 -10.053 -10.053 -10.049 -10.049
  1 B     1 A     2 A     2 B     3 B     3 A     4 B     4 A                  
-10.033 -10.033  -7.808  -7.808  -5.773  -5.773  -5.769  -5.769
  5 B     5 A     6 B     6 A     7 B     7 A     8 B     8 A                  
 -5.764  -5.764  -0.719  -0.698  -0.599  -0.576  -0.568  -0.532
  9 A     9 B    10 A    10 B    11 A    12 A    11 B    12 B                  
 -0.439  -0.410  -0.393  -0.366  -0.360  -0.313  -0.259  -0.251
 13 A    14 A    13 B    14 B    15 A    15 B    16 A    17 A                  
 -0.246  -0.234  -0.231  -0.206  -0.200  -0.190  -0.176  -0.102
 16 B    18 A    17 B    18 B    19 A    20 A    19 B    20 B                  
 -0.096  -0.096  -0.039
 21 A    21 B    22 A                                                          
 -- Virtual --                   
  0.093   0.096   0.106   0.109   0.114   0.124   0.140   0.143
 23 A    22 B    23 B    24 A    24 B    25 A    25 B    26 A                  
  0.151   0.156   0.158   0.171   0.174   0.176   0.177   0.184
 27 A    28 A    26 B    27 B    29 A    28 B    30 A    29 B                  
  0.199   0.201   0.205   0.206   0.213   0.217   0.224   0.228
 31 A    30 B    31 B    32 A    32 B    33 A    34 A    33 B                  
  0.230   0.234   0.235   0.244   0.247   0.252   0.258   0.261
 35 A    34 B    36 A    37 A    35 B    38 A    36 B    39 A                  
  0.272   0.273   0.277   0.283   0.289   0.293   0.301   0.303
 37 B    40 A    38 B    39 B    40 B    41 A    41 B    42 A                  
  0.307   0.310   0.322   0.329   0.333   0.337   0.342   0.347
 43 A    42 B    44 A    43 B    45 A    44 B    46 A    45 B                  
  0.363   0.380   0.381   0.392   0.397   0.405   0.443   0.450
 46 B    47 B    47 A    48 B    48 A    49 A    50 A    49 B                  
  0.452   0.453   0.461   0.467   0.488   0.494   0.517   0.534
 51 A    50 B    52 A    51 B    53 A    52 B    53 B    54 A                  
  0.584   0.593   0.613   0.653   0.677   0.679   0.704   0.716
 54 B    55 A    56 A    55 B    57 A    56 B    57 B    58 A                  
  0.717   0.759   0.770   0.771   0.814   0.819   0.831   0.833
 58 B    59 A    60 A    59 B    61 A    60 B    61 B    62 A                  
  0.845   0.863   0.872   0.877   0.887   0.897   0.906   0.909
 63 A    62 B    64 A    63 B    65 A    64 B    65 B    66 A                  
  0.943   0.946   0.982   0.992   1.012   1.038   1.058   1.093
 67 A    66 B    67 B    68 A    68 B    69 A    69 B    70 A                  
  1.102   1.104   1.113   1.119   1.122   1.136   1.147   1.157
 70 B    71 B    71 A    72 A    72 B    73 A    73 B    74 A                  
  1.163   1.194   1.205   1.222   1.244   1.247   1.263   1.271
 74 B    75 A    75 B    76 A    77 A    76 B    78 A    77 B                  
  1.274   1.322   1.342   1.375   1.402   1.414   1.486   1.510
 78 B    79 A    80 A    79 B    80 B    81 A    81 B    82 A                  
  1.519   1.520   1.523   1.552   1.605   1.638   1.650   1.714
 83 A    82 B    83 B    84 A    84 B    85 B    85 A    86 A                  
  1.748   1.840   1.854   1.884   1.975   2.009   2.044   2.054
 86 B    87 B    87 A    88 B    88 A    89 A    90 A    89 B                  
  2.065   2.089   2.115   2.121   2.166   2.170   2.213   2.220
 90 B    91 A    92 A    91 B    93 A    92 B    93 B    94 A                  
  2.283   2.301   2.319   2.335   2.378   2.405   2.419   2.456
 95 A    94 B    95 B    96 A    96 B    97 A    97 B    98 A                  
  2.517   2.519   2.580   2.601   2.614   2.625   2.650   2.673
 99 A    98 B    99 B   100 A   101 A   100 B   101 B   102 A                  
  2.675   2.697   2.734   2.751   2.753   2.825   2.840   2.872
102 B   103 A   104 A   103 B   105 A   104 B   105 B   106 A                  
  2.930   2.948   3.012   3.057   3.126   3.292   3.360   3.418
107 A   106 B   108 A   107 B   108 B   109 A   109 B   110 B                  
  3.418   3.556   3.579   3.861   3.893   4.108   4.158   4.430
110 A   111 A   111 B   112 A   112 B   113 A   113 B   114 A                  
  4.464   4.484   4.495   4.580   4.693   4.807   4.880
115 A   114 B   115 B   116 A   116 B   117 A   117 B                          
 --------------------------------------------------------------
 
          Ground-State Mulliken Net Atomic Charges

     Atom                 Charge (a.u.)    Spin (a.u.)
  --------------------------------------------------------
      1 S                    -0.236439       0.122295
      2 C                    -0.167760       0.235142
      3 C                    -0.359456      -0.065825
      4 C                     0.066740       0.199778
      5 C                    -0.105549       0.021296
      6 H                     0.094721      -0.003337
      7 C                    -0.105549       0.021296
      8 S                    -0.236439       0.122295
      9 C                     0.066739       0.199777
     10 C                    -0.167760       0.235141
     11 C                    -0.359456      -0.065825
     12 H                     0.070052       0.003226
     13 H                     0.137692      -0.012573
     14 H                     0.070052       0.003226
     15 H                     0.137692      -0.012573
     16 H                     0.094721      -0.003337
  --------------------------------------------------------
  Sum of atomic charges =    -1.000000
  Sum of spin   charges =     1.000000

 -----------------------------------------------------------------
                    Cartesian Multipole Moments
 -----------------------------------------------------------------
    Charge (ESU x 10^10)
                -4.8032
    Dipole Moment (Debye)
         X      -0.0000      Y       0.0000      Z      -0.4528
       Tot       0.4528
    Quadrupole Moments (Debye-Ang)
        XX     -99.6513     XY       0.9472     YY     -86.8251
        XZ      -0.0000     YZ      -0.0000     ZZ     -83.8489
    Octopole Moments (Debye-Ang^2)
       XXX      -0.0000    XXY      -0.0000    XYY       0.0000
       YYY       0.0000    XXZ       8.5424    XYZ      -4.6445
       YYZ       2.6013    XZZ      -0.0000    YZZ       0.0000
       ZZZ      -0.9520
    Hexadecapole Moments (Debye-Ang^3)
      XXXX   -2496.7951   XXXY       8.9915   XXYY    -493.9470
      XYYY      -6.8705   YYYY    -206.3357   XXXZ       0.0000
      XXYZ      -0.0000   XYYZ      -0.0000   YYYZ      -0.0000
      XXZZ    -507.5736   XYZZ       5.3176   YYZZ    -147.3389
      XZZZ       0.0000   YZZZ      -0.0000   ZZZZ    -641.6246
 -----------------------------------------------------------------
 Calculating analytic gradient of the SCF energy
 Gradient of SCF Energy
            1           2           3           4           5           6
    1  -0.0004656   0.0008925  -0.0000342  -0.0001437   0.0007596   0.0001705
    2  -0.0020923   0.0010529   0.0000443   0.0064102  -0.0058889  -0.0010068
    3  -0.0008451  -0.0001917   0.0009522   0.0023251  -0.0016671  -0.0003244
            7           8           9          10          11          12
    1  -0.0007596   0.0004656   0.0001437  -0.0008925   0.0000342  -0.0000708
    2   0.0058889   0.0020923  -0.0064102  -0.0010529  -0.0000443  -0.0000302
    3  -0.0016671  -0.0008451   0.0023251  -0.0001917   0.0009522   0.0000184
           13          14          15          16
    1   0.0001200   0.0000708  -0.0001200  -0.0001705
    2  -0.0011720   0.0000302   0.0011720   0.0010068
    3  -0.0002675   0.0000184  -0.0002675  -0.0003244
 Max gradient component =       6.410E-03
 RMS gradient           =       1.993E-03
 Gradient time:  CPU 1.80 s  wall 1.75 s
 Geometry Optimization Parameters
   NAtoms,    NIC,     NZ,  NCons,   NDum,   NFix, NCnnct, MaxDiis
       16     111       0       1       0       0       0       0

 Cartesian Hessian Update
 Hessian Updated using BFGS Update


** CONSTRAINED OPTIMIZATION IN DELOCALIZED INTERNAL COORDINATES **
   Searching for a Minimum

   Optimization Cycle:   2

                       Coordinates (Angstroms)
     ATOM                X               Y               Z
      1  S         1.6730305405   -0.4142565116    1.1234466739
      2  C         3.1952724158   -0.0653124209    0.2983970786
      3  C         2.9605670515    0.3303335598   -1.0065616222
      4  C         1.5953217026    0.4032211767   -1.3600670579
      5  C         0.7084757397    0.0130474462   -0.3331207731
      6  H         1.2373568578    0.7363742475   -2.3286038033
      7  C        -0.7084757397   -0.0130474462   -0.3331207731
      8  S        -1.6730305405    0.4142565116    1.1234466739
      9  C        -1.5953217026   -0.4032211767   -1.3600670579
     10  C        -3.1952724158    0.0653124209    0.2983970786
     11  C        -2.9605670515   -0.3303335598   -1.0065616222
     12  H        -3.7638730342   -0.6018026283   -1.6879070986
     13  H         4.1360813002   -0.1635563431    0.8221297834
     14  H         3.7638730342    0.6018026283   -1.6879070986
     15  H        -4.1360813002    0.1635563431    0.8221297834
     16  H        -1.2373568578   -0.7363742475   -2.3286038033
   Point Group: c2    Number of degrees of freedom:    22


   Energy is  -1104.838832238

              Constraints and their Current Values
                                        Value     Constraint
   Dihedral:        4   5   7   9       40.000       40.000
 Hessian Updated using BFGS Update

 17 Hessian modes will be used to form the next step
  Hessian Eigenvalues:
     0.022412    0.048278    0.159987    0.160000    0.160173    0.220270
     0.237281    0.251979    0.270949    0.284094    0.351004    0.354191
     0.358588    0.413745    0.426281    0.470255    0.479916

 Minimum Search - Taking Simple RFO Step
 Searching for Lamda that Minimizes Along All modes
 Value Taken    Lamda =  -0.00138342
 Step Taken.  Stepsize is  0.237632

                             Maximum     Tolerance    Cnvgd?
         Gradient           0.004359      0.000300      NO
         Displacement       0.184183      0.001200      NO
         Energy change     -0.001871      0.000001      NO


 New Cartesian Coordinates Obtained by Inverse Iteration

 Displacement from previous Coordinates is:  0.386752
 ----------------------------------------------------------------
             Standard Nuclear Orientation (Angstroms)
    I     Atom           X                Y                Z
 ----------------------------------------------------------------
    1      S       1.6762234062    -0.3661812388     1.1478990964
    2      C       3.1922080346    -0.0455335326     0.3031648575
    3      C       2.9558931617     0.2903762356    -1.0193434880
    4      C       1.5897914852     0.3523211610    -1.3671378971
    5      C       0.7081673444    -0.0116533099    -0.3274079292
    6      H       1.2239966900     0.6782676318    -2.3354578491
    7      C      -0.7081673444     0.0116533099    -0.3274079292
    8      S      -1.6762234062     0.3661812388     1.1478990964
    9      C      -1.5897914852    -0.3523211610    -1.3671378971
   10      C      -3.1922080346     0.0455335326     0.3031648575
   11      C      -2.9558931617    -0.2903762356    -1.0193434880
   12      H      -3.7553000113    -0.5521240761    -1.7089039500
   13      H       4.1325008874    -0.0877665008     0.8349003404
   14      H       3.7553000113     0.5521240761    -1.7089039500
   15      H      -4.1325008874     0.0877665008     0.8349003404
   16      H      -1.2239966900    -0.6782676318    -2.3354578491
 ----------------------------------------------------------------
 Molecular Point Group                 C2    NOp =  2
 Largest Abelian Subgroup              C2    NOp =  2
 Nuclear Repulsion Energy =   625.0432107025 hartrees
 There are       44 alpha and       43 beta electrons
 Applying Cartesian multipole field
    Component          Value
    ---------          -----
     (2,0,0)        1.00000E-11
     (0,2,0)        2.00000E-11
     (0,0,2)       -3.00000E-11
 Nucleus-field energy     =     0.0000000051 hartrees
 Requested basis set is 6-31++G(d,p)
 There are 76 shells and 234 basis functions
 A cutoff of  1.0D-11 yielded   2489 shell pairs
 There are     24595 function pairs
 Smallest overlap matrix eigenvalue = 1.35E-06

 Q-Chem warning in module /project/projectdirs/jcesr/qchem/qc44/cnl_qc441/compile/cori/qc_src/stvman/mkSTV.C, line 257:

 Overlap eigenvalue is smaller than square root of threshold

 Guess MOs from SCF MO coefficient file
 Reading MOs from coefficient file
 Reading MOs from coefficient file
 An unrestricted hybrid HF-DFT SCF calculation will be
 performed using Pulay DIIS extrapolation
 Exchange:     0.2000 Hartree-Fock + 0.0800 Slater + 0.7200 B88
 Correlation:  0.1900 VWN1RPA + 0.8100 LYP
 Using SG-1 standard quadrature grid
 SCF converges when DIIS error is below 1.0E-08
 Geometry optimization detected.  Setting ReadMinima to 0
 Setting SaveMinima to 0
 ---------------------------------------
  Cycle       Energy         DIIS Error
 ---------------------------------------
    1   -1104.8276229150      2.05E-03
    2   -1104.8391224852      2.21E-04
    3   -1104.8382942528      3.95E-04
    4   -1104.8396555211      4.89E-05
    5   -1104.8396707888      2.18E-05
    6   -1104.8396730954      1.47E-05
    7   -1104.8396749687      2.04E-06
    8   -1104.8396750355      6.10E-07
    9   -1104.8396750458      2.79E-07
   10   -1104.8396750515      1.10E-07
   11   -1104.8396750535      5.18E-08
   12   -1104.8396750552      2.77E-08
   13   -1104.8396750538      8.35E-09 Convergence criterion met
 ---------------------------------------
 <S^2> = 0.7626
 SCF time:  CPU 8.52 s  wall 7.67 s
 SCF   energy in the final basis set = -1104.8396750538
 Total energy in the final basis set = -1104.8396750538
 
 --------------------------------------------------------------
             Orbital Energies (a.u.) and Symmetries
 --------------------------------------------------------------
 
 Alpha MOs, Unrestricted
 -- Occupied --                  
-88.750 -88.750 -10.064 -10.064 -10.056 -10.056 -10.048 -10.048
  1 B     1 A     2 A     2 B     3 B     3 A     4 B     4 A                  
-10.034 -10.034  -7.809  -7.809  -5.773  -5.773  -5.770  -5.770
  5 B     5 A     6 B     6 A     7 B     7 A     8 B     8 A                  
 -5.766  -5.766  -0.723  -0.702  -0.605  -0.581  -0.571  -0.536
  9 A     9 B    10 A    10 B    11 A    12 A    11 B    12 B                  
 -0.446  -0.412  -0.395  -0.369  -0.362  -0.315  -0.261  -0.253
 13 A    14 A    13 B    14 B    15 A    15 B    16 A    17 A                  
 -0.248  -0.239  -0.237  -0.209  -0.209  -0.194  -0.179  -0.119
 16 B    17 B    18 A    18 B    19 A    20 A    19 B    20 B                  
 -0.107  -0.104  -0.055   0.051
 21 B    21 A    22 A    22 B                                                  
 -- Virtual --                   
  0.093   0.096   0.109   0.114   0.124   0.137   0.141   0.150
 23 A    23 B    24 A    24 B    25 A    26 A    25 B    27 A                  
  0.151   0.157   0.169   0.171   0.175   0.177   0.181   0.197
 28 A    26 B    29 A    27 B    28 B    30 A    29 B    31 A                  
  0.200   0.203   0.206   0.213   0.218   0.225   0.227   0.229
 30 B    31 B    32 A    32 B    33 A    34 A    33 B    35 A                  
  0.233   0.234   0.244   0.247   0.250   0.257   0.259   0.270
 34 B    36 A    37 A    35 B    38 A    39 A    36 B    40 A                  
  0.274   0.276   0.282   0.289   0.289   0.299   0.301   0.308
 37 B    38 B    39 B    40 B    41 A    41 B    42 A    43 A                  
  0.309   0.321   0.330   0.331   0.337   0.339   0.344   0.359
 42 B    44 A    45 A    43 B    44 B    46 A    45 B    46 B                  
  0.375   0.385   0.395   0.400   0.404   0.441   0.447   0.448
 47 A    47 B    48 B    48 A    49 A    50 A    49 B    51 A                  
  0.450   0.460   0.469   0.487   0.490   0.515   0.531   0.581
 50 B    52 A    51 B    53 A    52 B    53 B    54 A    54 B                  
  0.591   0.611   0.647   0.675   0.680   0.701   0.712   0.724
 55 A    56 A    55 B    57 A    56 B    57 B    58 A    58 B                  
  0.755   0.764   0.772   0.804   0.817   0.822   0.825   0.841
 59 A    60 A    59 B    61 A    60 B    61 B    62 A    63 A                  
  0.859   0.869   0.875   0.880   0.887   0.905   0.906   0.941
 62 B    64 A    63 B    65 A    64 B    66 A    65 B    67 A                  
  0.947   0.973   0.985   1.003   1.035   1.057   1.087   1.101
 66 B    67 B    68 A    68 B    69 A    69 B    70 A    70 B                  
  1.102   1.108   1.119   1.126   1.134   1.144   1.153   1.160
 71 B    71 A    72 A    72 B    73 A    73 B    74 A    74 B                  
  1.186   1.210   1.218   1.242   1.244   1.260   1.266   1.272
 75 A    75 B    76 A    77 A    76 B    78 A    77 B    78 B                  
  1.316   1.339   1.367   1.405   1.409   1.482   1.499   1.513
 79 A    80 A    79 B    80 B    81 A    81 B    82 A    82 B                  
  1.515   1.526   1.557   1.589   1.637   1.640   1.713   1.754
 83 A    83 B    84 A    84 B    85 A    85 B    86 A    86 B                  
  1.820   1.844   1.862   1.972   2.012   2.038   2.052   2.063
 87 B    87 A    88 B    88 A    89 A    90 A    89 B    90 B                  
  2.088   2.122   2.126   2.159   2.166   2.205   2.222   2.273
 91 A    91 B    92 A    93 A    92 B    93 B    94 A    95 A                  
  2.297   2.313   2.315   2.371   2.402   2.422   2.454   2.516
 94 B    95 B    96 A    96 B    97 A    97 B    98 A    99 A                  
  2.519   2.575   2.597   2.601   2.626   2.652   2.669   2.676
 98 B    99 B   100 A   101 A   100 B   101 B   102 B   102 A                  
  2.691   2.731   2.750   2.751   2.821   2.836   2.871   2.927
103 A   104 A   103 B   105 A   104 B   105 B   106 A   107 A                  
  2.948   3.011   3.053   3.120   3.291   3.359   3.417   3.417
106 B   108 A   107 B   108 B   109 A   109 B   110 B   110 A                  
  3.554   3.576   3.859   3.893   4.102   4.159   4.426   4.461
111 A   111 B   112 A   112 B   113 A   113 B   114 A   115 A                  
  4.482   4.489   4.573   4.688   4.804   4.875
114 B   115 B   116 A   116 B   117 A   117 B                                  
 
 Beta MOs, Unrestricted
 -- Occupied --                  
-88.750 -88.750 -10.062 -10.062 -10.053 -10.053 -10.049 -10.049
  1 B     1 A     2 A     2 B     3 B     3 A     4 B     4 A                  
-10.032 -10.032  -7.809  -7.809  -5.773  -5.773  -5.770  -5.770
  5 B     5 A     6 B     6 A     7 B     7 A     8 B     8 A                  
 -5.765  -5.765  -0.719  -0.699  -0.599  -0.577  -0.568  -0.531
  9 A     9 B    10 A    10 B    11 A    12 A    11 B    12 B                  
 -0.439  -0.410  -0.392  -0.366  -0.361  -0.313  -0.259  -0.251
 13 A    14 A    13 B    14 B    15 A    15 B    16 A    17 A                  
 -0.245  -0.235  -0.230  -0.207  -0.200  -0.192  -0.176  -0.104
 16 B    18 A    17 B    18 B    19 A    20 A    19 B    20 B                  
 -0.097  -0.096  -0.037
 21 B    21 A    22 A                                                          
 -- Virtual --                   
  0.093   0.096   0.105   0.109   0.114   0.124   0.141   0.145
 23 A    22 B    23 B    24 A    24 B    25 A    25 B    26 A                  
  0.151   0.157   0.157   0.171   0.173   0.176   0.177   0.184
 27 A    28 A    26 B    29 A    27 B    28 B    30 A    29 B                  
  0.200   0.201   0.203   0.206   0.214   0.218   0.226   0.228
 31 A    30 B    31 B    32 A    32 B    33 A    34 A    33 B                  
  0.230   0.234   0.234   0.245   0.249   0.252   0.259   0.260
 35 A    34 B    36 A    37 A    35 B    38 A    39 A    36 B                  
  0.271   0.274   0.277   0.284   0.289   0.293   0.300   0.304
 40 A    37 B    38 B    39 B    40 B    41 A    41 B    42 A                  
  0.308   0.310   0.321   0.331   0.331   0.339   0.339   0.344
 43 A    42 B    44 A    45 A    43 B    44 B    46 A    45 B                  
  0.359   0.376   0.385   0.396   0.400   0.405   0.442   0.449
 46 B    47 A    47 B    48 B    48 A    49 A    50 A    49 B                  
  0.451   0.452   0.460   0.470   0.487   0.490   0.518   0.532
 51 A    50 B    52 A    51 B    53 A    52 B    53 B    54 A                  
  0.583   0.592   0.613   0.650   0.678   0.682   0.703   0.715
 54 B    55 A    56 A    55 B    57 A    56 B    57 B    58 A                  
  0.726   0.757   0.765   0.774   0.815   0.821   0.830   0.833
 58 B    59 A    60 A    59 B    61 A    60 B    62 A    61 B                  
  0.843   0.862   0.872   0.877   0.881   0.892   0.908   0.910
 63 A    62 B    64 A    63 B    65 A    64 B    65 B    66 A                  
  0.943   0.950   0.980   0.992   1.009   1.037   1.059   1.089
 67 A    66 B    67 B    68 A    68 B    69 A    69 B    70 A                  
  1.102   1.105   1.110   1.121   1.126   1.136   1.146   1.155
 70 B    71 B    71 A    72 A    72 B    73 A    73 B    74 A                  
  1.161   1.188   1.212   1.221   1.243   1.248   1.263   1.270
 74 B    75 A    75 B    76 A    77 A    76 B    78 A    77 B                  
  1.276   1.319   1.342   1.370   1.407   1.412   1.485   1.503
 78 B    79 A    80 A    79 B    80 B    81 A    81 B    82 A                  
  1.516   1.519   1.531   1.561   1.592   1.639   1.643   1.718
 82 B    83 A    83 B    84 A    84 B    85 A    85 B    86 A                  
  1.758   1.827   1.855   1.872   1.975   2.014   2.043   2.053
 86 B    87 B    87 A    88 B    88 A    89 A    90 A    89 B                  
  2.065   2.089   2.126   2.130   2.162   2.171   2.207   2.226
 90 B    91 A    91 B    92 A    93 A    92 B    93 B    94 A                  
  2.280   2.305   2.318   2.324   2.378   2.406   2.426   2.458
 95 A    94 B    95 B    96 A    96 B    97 A    97 B    98 A                  
  2.518   2.521   2.580   2.600   2.604   2.628   2.653   2.673
 99 A    98 B    99 B   100 A   101 A   100 B   101 B   102 B                  
  2.678   2.695   2.733   2.754   2.755   2.822   2.839   2.875
102 A   103 A   104 A   103 B   105 A   104 B   105 B   106 A                  
  2.929   2.951   3.014   3.055   3.122   3.292   3.360   3.417
107 A   106 B   108 A   107 B   108 B   109 A   109 B   110 B                  
  3.417   3.555   3.578   3.860   3.894   4.104   4.161   4.430
110 A   111 A   111 B   112 A   112 B   113 A   113 B   114 A                  
  4.463   4.486   4.492   4.578   4.693   4.807   4.878
115 A   114 B   115 B   116 A   116 B   117 A   117 B                          
 --------------------------------------------------------------
 
          Ground-State Mulliken Net Atomic Charges

     Atom                 Charge (a.u.)    Spin (a.u.)
  --------------------------------------------------------
      1 S                    -0.237645       0.119965
      2 C                    -0.176031       0.237010
      3 C                    -0.357690      -0.065811
      4 C                     0.032602       0.199114
      5 C                    -0.065757       0.023249
      6 H                     0.095085      -0.004333
      7 C                    -0.065757       0.023249
      8 S                    -0.237645       0.119965
      9 C                     0.032602       0.199114
     10 C                    -0.176031       0.237010
     11 C                    -0.357690      -0.065811
     12 H                     0.070073       0.003334
     13 H                     0.139363      -0.012529
     14 H                     0.070073       0.003334
     15 H                     0.139363      -0.012529
     16 H                     0.095085      -0.004333
  --------------------------------------------------------
  Sum of atomic charges =    -1.000000
  Sum of spin   charges =     1.000000

 -----------------------------------------------------------------
                    Cartesian Multipole Moments
 -----------------------------------------------------------------
    Charge (ESU x 10^10)
                -4.8032
    Dipole Moment (Debye)
         X      -0.0000      Y      -0.0000      Z      -0.4541
       Tot       0.4541
    Quadrupole Moments (Debye-Ang)
        XX     -99.8105     XY       1.5612     YY     -86.7772
        XZ       0.0000     YZ      -0.0000     ZZ     -83.8672
    Octopole Moments (Debye-Ang^2)
       XXX      -0.0000    XXY      -0.0000    XYY      -0.0000
       YYY       0.0000    XXZ       8.0792    XYZ      -4.0918
       YYZ       1.8912    XZZ      -0.0000    YZZ       0.0000
       ZZZ      -2.4431
    Hexadecapole Moments (Debye-Ang^3)
      XXXX   -2497.9584   XXXY      19.1760   XXYY    -492.6877
      XYYY      -6.6647   YYYY    -191.3274   XXXZ       0.0000
      XXYZ      -0.0000   XYYZ       0.0000   YYYZ      -0.0000
      XXZZ    -507.3803   XYZZ       6.1903   YYZZ    -149.0310
      XZZZ       0.0000   YZZZ      -0.0000   ZZZZ    -654.1939
 -----------------------------------------------------------------
 Calculating analytic gradient of the SCF energy
 Gradient of SCF Energy
            1           2           3           4           5           6
    1   0.0008169  -0.0006281   0.0002574  -0.0006214   0.0013556  -0.0001274
    2  -0.0013505   0.0011302  -0.0019858   0.0066830  -0.0104581  -0.0000902
    3   0.0005850   0.0005135  -0.0009747   0.0034888  -0.0033634  -0.0000847
            7           8           9          10          11          12
    1  -0.0013556  -0.0008169   0.0006214   0.0006281  -0.0002574   0.0000627
    2   0.0104581   0.0013505  -0.0066830  -0.0011302   0.0019857  -0.0004296
    3  -0.0033634   0.0005850   0.0034888   0.0005135  -0.0009747  -0.0000377
           13          14          15          16
    1  -0.0000550  -0.0000627   0.0000550   0.0001274
    2  -0.0001962   0.0004296   0.0001962   0.0000902
    3  -0.0001268  -0.0000377  -0.0001268  -0.0000847
 Max gradient component =       1.046E-02
 RMS gradient           =       2.812E-03
 Gradient time:  CPU 1.75 s  wall 1.76 s
 Geometry Optimization Parameters
   NAtoms,    NIC,     NZ,  NCons,   NDum,   NFix, NCnnct, MaxDiis
       16     111       0       1       0       0       0       0

 Cartesian Hessian Update
 Hessian Updated using BFGS Update


** CONSTRAINED OPTIMIZATION IN DELOCALIZED INTERNAL COORDINATES **
   Searching for a Minimum

   Optimization Cycle:   3

                       Coordinates (Angstroms)
     ATOM                X               Y               Z
      1  S         1.6762234062   -0.3661812388    1.1478990964
      2  C         3.1922080346   -0.0455335326    0.3031648575
      3  C         2.9558931617    0.2903762356   -1.0193434880
      4  C         1.5897914852    0.3523211610   -1.3671378971
      5  C         0.7081673444   -0.0116533099   -0.3274079292
      6  H         1.2239966900    0.6782676318   -2.3354578491
      7  C        -0.7081673444    0.0116533099   -0.3274079292
      8  S        -1.6762234062    0.3661812388    1.1478990964
      9  C        -1.5897914852   -0.3523211610   -1.3671378971
     10  C        -3.1922080346    0.0455335326    0.3031648575
     11  C        -2.9558931617   -0.2903762356   -1.0193434880
     12  H        -3.7553000113   -0.5521240761   -1.7089039500
     13  H         4.1325008874   -0.0877665008    0.8349003404
     14  H         3.7553000113    0.5521240761   -1.7089039500
     15  H        -4.1325008874    0.0877665008    0.8349003404
     16  H        -1.2239966900   -0.6782676318   -2.3354578491
   Point Group: c2    Number of degrees of freedom:    22


   Energy is  -1104.839675054

              Constraints and their Current Values
                                        Value     Constraint
   Dihedral:        4   5   7   9       40.000       40.000
 Hessian Updated using BFGS Update

 20 Hessian modes will be used to form the next step
  Hessian Eigenvalues:
     0.015917    0.045000    0.045000    0.045120    0.051043    0.160000
     0.160068    0.160356    0.222688    0.246125    0.256211    0.275798
     0.284127    0.351007    0.354233    0.358639    0.420410    0.426246
     0.470726    0.478316

 Minimum Search - Taking Simple RFO Step
 Searching for Lamda that Minimizes Along All modes
 Value Taken    Lamda =  -0.00028756
 Step Taken.  Stepsize is  0.116799

                             Maximum     Tolerance    Cnvgd?
         Gradient           0.002662      0.000300      NO
         Displacement       0.082258      0.001200      NO
         Energy change     -0.000843      0.000001      NO


 New Cartesian Coordinates Obtained by Inverse Iteration

 Displacement from previous Coordinates is:  0.185753
 ----------------------------------------------------------------
             Standard Nuclear Orientation (Angstroms)
    I     Atom           X                Y                Z
 ----------------------------------------------------------------
    1      S       1.6688231899    -0.3389991076     1.1515254242
    2      C       3.1902345451    -0.0369442335     0.3101339599
    3      C       2.9597352753     0.2799430774    -1.0180063730
    4      C       1.5954704540     0.3277659925    -1.3765122621
    5      C       0.7076052238    -0.0227846694    -0.3353745704
    6      H       1.2343239057     0.6466554122    -2.3487906753
    7      C      -0.7076052238     0.0227846694    -0.3353745704
    8      S      -1.6688231899     0.3389991076     1.1515254242
    9      C      -1.5954704540    -0.3277659925    -1.3765122621
   10      C      -3.1902345451     0.0369442335     0.3101339599
   11      C      -2.9597352753    -0.2799430774    -1.0180063730
   12      H      -3.7627998191    -0.5347650058    -1.7056824627
   13      H       4.1265743606    -0.0572017650     0.8504201402
   14      H       3.7627998191     0.5347650058    -1.7056824627
   15      H      -4.1265743606     0.0572017650     0.8504201402
   16      H      -1.2343239057    -0.6466554122    -2.3487906753
 ----------------------------------------------------------------
 Molecular Point Group                 C2    NOp =  2
 Largest Abelian Subgroup              C2    NOp =  2
 Nuclear Repulsion Energy =   625.3929513496 hartrees
 There are       44 alpha and       43 beta electrons
 Applying Cartesian multipole field
    Component          Value
    ---------          -----
     (2,0,0)        1.00000E-11
     (0,2,0)        2.00000E-11
     (0,0,2)       -3.00000E-11
 Nucleus-field energy     =     0.0000000049 hartrees
 Requested basis set is 6-31++G(d,p)
 There are 76 shells and 234 basis functions
 A cutoff of  1.0D-11 yielded   2489 shell pairs
 There are     24595 function pairs
 Smallest overlap matrix eigenvalue = 1.58E-06

 Q-Chem warning in module /project/projectdirs/jcesr/qchem/qc44/cnl_qc441/compile/cori/qc_src/stvman/mkSTV.C, line 257:

 Overlap eigenvalue is smaller than square root of threshold

 Guess MOs from SCF MO coefficient file
 Reading MOs from coefficient file
 Reading MOs from coefficient file
 An unrestricted hybrid HF-DFT SCF calculation will be
 performed using Pulay DIIS extrapolation
 Exchange:     0.2000 Hartree-Fock + 0.0800 Slater + 0.7200 B88
 Correlation:  0.1900 VWN1RPA + 0.8100 LYP
 Using SG-1 standard quadrature grid
 SCF converges when DIIS error is below 1.0E-08
 Geometry optimization detected.  Setting ReadMinima to 0
 Setting SaveMinima to 0
 ---------------------------------------
  Cycle       Energy         DIIS Error
 ---------------------------------------
    1   -1104.8337193495      8.71E-04
    2   -1104.8397417053      1.10E-04
    3   -1104.8395566977      1.90E-04
    4   -1104.8398631320      3.20E-05
    5   -1104.8398706304      1.23E-05
    6   -1104.8398715959      6.69E-06
    7   -1104.8398719598      9.67E-07
    8   -1104.8398719769      3.19E-07
    9   -1104.8398719810      1.65E-07
   10   -1104.8398719823      5.82E-08
   11   -1104.8398719834      2.87E-08
   12   -1104.8398719826      1.50E-08
   13   -1104.8398719821      4.13E-09 Convergence criterion met
 ---------------------------------------
 <S^2> = 0.7627
 SCF time:  CPU 8.49 s  wall 7.63 s
 SCF   energy in the final basis set = -1104.8398719821
 Total energy in the final basis set = -1104.8398719821
 
 --------------------------------------------------------------
             Orbital Energies (a.u.) and Symmetries
 --------------------------------------------------------------
 
 Alpha MOs, Unrestricted
 -- Occupied --                  
-88.750 -88.750 -10.065 -10.064 -10.056 -10.056 -10.048 -10.048
  1 B     1 A     2 A     2 B     3 B     3 A     4 B     4 A                  
-10.034 -10.034  -7.809  -7.809  -5.773  -5.773  -5.770  -5.770
  5 B     5 A     6 B     6 A     7 B     7 A     8 B     8 A                  
 -5.766  -5.766  -0.723  -0.702  -0.605  -0.581  -0.571  -0.536
  9 A     9 B    10 A    10 B    11 A    12 A    11 B    12 B                  
 -0.446  -0.413  -0.395  -0.369  -0.362  -0.315  -0.261  -0.253
 13 A    14 A    13 B    14 B    15 A    15 B    16 A    17 A                  
 -0.248  -0.239  -0.238  -0.209  -0.209  -0.194  -0.178  -0.120
 16 B    17 B    18 A    18 B    19 A    20 A    19 B    20 B                  
 -0.107  -0.103  -0.054   0.051
 21 B    21 A    22 A    22 B                                                  
 -- Virtual --                   
  0.094   0.096   0.109   0.115   0.125   0.138   0.141   0.150
 23 A    23 B    24 A    24 B    25 A    26 A    25 B    27 A                  
  0.152   0.157   0.169   0.171   0.175   0.177   0.182   0.198
 28 A    26 B    29 A    27 B    28 B    30 A    29 B    31 A                  
  0.201   0.202   0.207   0.213   0.218   0.225   0.228   0.229
 30 B    31 B    32 A    32 B    33 A    34 A    33 B    35 A                  
  0.233   0.234   0.244   0.248   0.250   0.256   0.260   0.270
 34 B    36 A    37 A    35 B    38 A    39 A    36 B    40 A                  
  0.275   0.276   0.282   0.288   0.289   0.299   0.301   0.309
 37 B    38 B    39 B    41 A    40 B    41 B    42 A    43 A                  
  0.310   0.320   0.330   0.332   0.337   0.338   0.343   0.357
 42 B    44 A    45 A    43 B    46 A    44 B    45 B    46 B                  
  0.373   0.386   0.398   0.401   0.404   0.440   0.445   0.447
 47 A    47 B    48 B    48 A    49 A    50 A    49 B    51 A                  
  0.450   0.459   0.470   0.486   0.489   0.515   0.530   0.579
 50 B    52 A    51 B    53 A    52 B    53 B    54 A    54 B                  
  0.590   0.611   0.646   0.676   0.682   0.701   0.712   0.728
 55 A    56 A    55 B    57 A    56 B    57 B    58 A    58 B                  
  0.753   0.762   0.776   0.804   0.817   0.823   0.824   0.839
 59 A    60 A    59 B    61 A    60 B    61 B    62 A    63 A                  
  0.859   0.869   0.875   0.878   0.884   0.905   0.907   0.940
 62 B    64 A    63 B    65 A    64 B    66 A    65 B    67 A                  
  0.950   0.971   0.984   1.001   1.035   1.058   1.085   1.102
 66 B    67 B    68 A    68 B    69 A    69 B    70 A    70 B                  
  1.103   1.106   1.120   1.128   1.133   1.142   1.154   1.158
 71 B    71 A    72 A    72 B    73 A    73 B    74 A    74 B                  
  1.184   1.215   1.215   1.242   1.244   1.261   1.266   1.273
 75 A    75 B    76 A    77 A    76 B    78 A    77 B    78 B                  
  1.314   1.338   1.364   1.403   1.409   1.486   1.495   1.511
 79 A    80 A    79 B    80 B    81 A    81 B    82 A    82 B                  
  1.515   1.528   1.560   1.579   1.631   1.644   1.716   1.761
 83 A    83 B    84 A    84 B    85 A    85 B    86 A    86 B                  
  1.813   1.846   1.860   1.972   2.011   2.037   2.052   2.063
 87 B    87 A    88 B    88 A    89 A    90 A    89 B    90 B                  
  2.087   2.123   2.133   2.158   2.164   2.202   2.222   2.270
 91 A    91 B    92 A    93 A    92 B    93 B    94 A    95 A                  
  2.298   2.310   2.311   2.370   2.404   2.425   2.452   2.516
 94 B    96 A    95 B    96 B    97 A    97 B    98 A    99 A                  
  2.520   2.575   2.594   2.599   2.626   2.655   2.670   2.676
 98 B    99 B   100 A   101 A   100 B   101 B   102 B   102 A                  
  2.691   2.731   2.750   2.753   2.819   2.836   2.871   2.926
103 A   104 A   103 B   105 A   104 B   105 B   106 A   107 A                  
  2.947   3.010   3.053   3.119   3.290   3.358   3.417   3.418
106 B   108 A   107 B   108 B   109 A   109 B   110 A   110 B                  
  3.553   3.576   3.858   3.892   4.101   4.162   4.425   4.460
111 A   111 B   112 A   112 B   113 A   113 B   114 A   115 A                  
  4.482   4.488   4.573   4.688   4.803   4.874
114 B   115 B   116 A   116 B   117 A   117 B                                  
 
 Beta MOs, Unrestricted
 -- Occupied --                  
-88.750 -88.750 -10.063 -10.062 -10.053 -10.053 -10.049 -10.049
  1 B     1 A     2 A     2 B     3 B     3 A     4 B     4 A                  
-10.032 -10.032  -7.809  -7.809  -5.773  -5.773  -5.770  -5.770
  5 B     5 A     6 B     6 A     7 B     7 A     8 B     8 A                  
 -5.765  -5.765  -0.719  -0.699  -0.599  -0.577  -0.568  -0.531
  9 A     9 B    10 A    10 B    11 A    12 A    11 B    12 B                  
 -0.439  -0.411  -0.392  -0.366  -0.361  -0.314  -0.259  -0.251
 13 A    14 A    13 B    14 B    15 A    15 B    16 A    17 A                  
 -0.245  -0.235  -0.230  -0.207  -0.200  -0.192  -0.176  -0.105
 16 B    18 A    17 B    18 B    19 A    20 A    19 B    20 B                  
 -0.098  -0.095  -0.036
 21 B    21 A    22 A                                                          
 -- Virtual --                   
  0.093   0.096   0.104   0.109   0.114   0.124   0.142   0.145
 23 A    22 B    23 B    24 A    24 B    25 A    25 B    26 A                  
  0.151   0.157   0.158   0.170   0.174   0.176   0.177   0.184
 27 A    26 B    28 A    29 A    27 B    28 B    30 A    29 B                  
  0.201   0.201   0.204   0.207   0.215   0.218   0.226   0.228
 31 A    30 B    31 B    32 A    32 B    33 A    34 A    33 B                  
  0.230   0.234   0.234   0.245   0.249   0.253   0.259   0.261
 35 A    36 A    34 B    37 A    35 B    38 A    39 A    36 B                  
  0.271   0.276   0.278   0.284   0.289   0.292   0.300   0.304
 40 A    37 B    38 B    39 B    40 B    41 A    41 B    42 A                  
  0.309   0.311   0.320   0.330   0.332   0.338   0.339   0.344
 43 A    42 B    44 A    45 A    43 B    46 A    44 B    45 B                  
  0.358   0.374   0.387   0.398   0.401   0.404   0.441   0.446
 46 B    47 A    47 B    48 B    48 A    49 A    50 A    49 B                  
  0.450   0.451   0.460   0.471   0.487   0.489   0.518   0.531
 51 A    50 B    52 A    51 B    53 A    52 B    53 B    54 A                  
  0.581   0.591   0.612   0.648   0.679   0.684   0.703   0.714
 54 B    55 A    56 A    55 B    57 A    56 B    57 B    58 A                  
  0.730   0.754   0.764   0.778   0.815   0.821   0.829   0.834
 58 B    59 A    60 A    59 B    61 A    60 B    62 A    61 B                  
  0.842   0.862   0.872   0.878   0.879   0.889   0.909   0.911
 63 A    62 B    64 A    63 B    65 A    64 B    65 B    66 A                  
  0.942   0.953   0.978   0.992   1.008   1.037   1.060   1.087
 67 A    66 B    67 B    68 A    68 B    69 A    69 B    70 A                  
  1.104   1.106   1.108   1.123   1.128   1.135   1.144   1.156
 70 B    71 B    71 A    72 A    72 B    73 A    73 B    74 A                  
  1.159   1.186   1.217   1.218   1.244   1.247   1.263   1.271
 74 B    75 A    75 B    76 A    77 A    76 B    78 A    77 B                  
  1.276   1.318   1.341   1.366   1.404   1.412   1.490   1.499
 78 B    79 A    80 A    79 B    80 B    81 A    81 B    82 A                  
  1.514   1.519   1.533   1.563   1.582   1.633   1.647   1.722
 82 B    83 A    83 B    84 A    84 B    85 A    85 B    86 A                  
  1.766   1.820   1.856   1.870   1.975   2.013   2.041   2.053
 86 B    87 B    87 A    88 B    88 A    89 A    90 A    89 B                  
  2.065   2.089   2.128   2.137   2.161   2.168   2.204   2.225
 90 B    91 A    91 B    92 A    93 A    92 B    93 B    94 A                  
  2.278   2.306   2.315   2.319   2.377   2.408   2.429   2.456
 95 A    94 B    95 B    96 A    96 B    97 A    97 B    98 A                  
  2.518   2.522   2.579   2.597   2.602   2.628   2.656   2.674
 99 A    98 B    99 B   100 A   101 A   100 B   101 B   102 B                  
  2.678   2.696   2.733   2.754   2.758   2.820   2.839   2.875
102 A   103 A   104 A   103 B   105 A   104 B   105 B   106 A                  
  2.928   2.950   3.012   3.055   3.120   3.291   3.359   3.418
107 A   106 B   108 A   107 B   108 B   109 A   109 B   110 A                  
  3.418   3.554   3.577   3.859   3.893   4.102   4.163   4.429
110 B   111 A   111 B   112 A   112 B   113 A   113 B   114 A                  
  4.462   4.487   4.490   4.578   4.693   4.806   4.877
115 A   114 B   115 B   116 A   116 B   117 A   117 B                          
 --------------------------------------------------------------
 
          Ground-State Mulliken Net Atomic Charges

     Atom                 Charge (a.u.)    Spin (a.u.)
  --------------------------------------------------------
      1 S                    -0.245667       0.117831
      2 C                    -0.171671       0.238242
      3 C                    -0.354852      -0.067411
      4 C                     0.016955       0.202209
      5 C                    -0.050468       0.023437
      6 H                     0.094409      -0.005006
      7 C                    -0.050468       0.023437
      8 S                    -0.245667       0.117831
[...]
      3 C                    -0.347211      -0.068098
      4 C                     0.005696       0.205414
      5 C                    -0.037492       0.023647
      6 H                     0.091923      -0.006193
      7 C                    -0.037492       0.023647
      8 S                    -0.258215       0.115589
      9 C                     0.005696       0.205414
     10 C                    -0.168008       0.239425
     11 C                    -0.347211      -0.068098
     12 H                     0.070017       0.003622
     13 H                     0.143291      -0.013407
     14 H                     0.070017       0.003622
     15 H                     0.143291      -0.013407
     16 H                     0.091923      -0.006193
  --------------------------------------------------------
  Sum of atomic charges =    -1.000000
  Sum of spin   charges =     1.000000

 -----------------------------------------------------------------
                    Cartesian Multipole Moments
 -----------------------------------------------------------------
    Charge (ESU x 10^10)
                -4.8032
    Dipole Moment (Debye)
         X       0.0000      Y       0.0000      Z      -0.4152
       Tot       0.4152
    Quadrupole Moments (Debye-Ang)
        XX     -99.6509     XY       1.5309     YY     -86.8351
        XZ       0.0000     YZ      -0.0000     ZZ     -83.6984
    Octopole Moments (Debye-Ang^2)
       XXX       0.0000    XXY      -0.0000    XYY       0.0000
       YYY       0.0000    XXZ       8.5077    XYZ      -3.6456
       YYZ       2.0744    XZZ      -0.0000    YZZ       0.0000
       ZZZ      -1.9542
    Hexadecapole Moments (Debye-Ang^3)
      XXXX   -2487.5926   XXXY      12.9846   XXYY    -489.8947
      XYYY     -15.2539   YYYY    -179.5099   XXXZ       0.0000
      XXYZ      -0.0000   XYYZ      -0.0000   YYYZ      -0.0000
      XXZZ    -504.3500   XYZZ       3.6747   YYZZ    -150.4391
      XZZZ       0.0000   YZZZ      -0.0000   ZZZZ    -658.5148
 -----------------------------------------------------------------
 Calculating analytic gradient of the SCF energy
 Gradient of SCF Energy
            1           2           3           4           5           6
    1   0.0000096   0.0000114  -0.0000012   0.0002522  -0.0005839   0.0000007
    2  -0.0000410  -0.0000838   0.0001168   0.0063015  -0.0140947  -0.0000051
    3   0.0000105  -0.0000166   0.0000219   0.0023309  -0.0023317  -0.0000045
            7           8           9          10          11          12
    1   0.0005839  -0.0000096  -0.0002522  -0.0000114   0.0000012  -0.0000031
    2   0.0140947   0.0000410  -0.0063015   0.0000838  -0.0001168   0.0000798
    3  -0.0023317   0.0000105   0.0023309  -0.0000166   0.0000219  -0.0000241
           13          14          15          16
    1  -0.0000087   0.0000031   0.0000087  -0.0000007
    2   0.0000578  -0.0000798  -0.0000578   0.0000051
    3   0.0000137  -0.0000241   0.0000137  -0.0000045
 Max gradient component =       1.409E-02
 RMS gradient           =       3.225E-03
 Gradient time:  CPU 1.84 s  wall 1.81 s
 Geometry Optimization Parameters
   NAtoms,    NIC,     NZ,  NCons,   NDum,   NFix, NCnnct, MaxDiis
       16     111       0       1       0       0       0       0

 Cartesian Hessian Update
 Hessian Updated using BFGS Update


** CONSTRAINED OPTIMIZATION IN DELOCALIZED INTERNAL COORDINATES **
   Searching for a Minimum

   Optimization Cycle:   9

                       Coordinates (Angstroms)
     ATOM                X               Y               Z
      1  S         1.6519035372   -0.3116941519    1.1518591883
      2  C         3.1826731255   -0.0179397164    0.3231037537
      3  C         2.9645228482    0.2816870339   -1.0107975500
      4  C         1.6055931606    0.3084165607   -1.3881652754
      5  C         0.7072584743   -0.0307737623   -0.3498375959
      6  H         1.2565680127    0.5978751860   -2.3739637471
      7  C        -0.7072584743    0.0307737623   -0.3498375959
      8  S        -1.6519035372    0.3116941519    1.1518591883
      9  C        -1.6055931606   -0.3084165607   -1.3881652754
     10  C        -3.1826731255    0.0179397164    0.3231037537
     11  C        -2.9645228482   -0.2816870339   -1.0107975500
     12  H        -3.7751589185   -0.5136830137   -1.6978282569
     13  H         4.1131376336   -0.0335618087    0.8733426642
     14  H         3.7751589185    0.5136830137   -1.6978282569
     15  H        -4.1131376336    0.0335618087    0.8733426642
     16  H        -1.2565680127   -0.5978751860   -2.3739637471
   Point Group: c2    Number of degrees of freedom:    22


   Energy is  -1104.839976403

              Constraints and their Current Values
                                        Value     Constraint
   Dihedral:        4   5   7   9       40.000       40.000
 Hessian Updated using BFGS Update

 20 Hessian modes will be used to form the next step
  Hessian Eigenvalues:
     0.007776    0.013559    0.029307    0.045439    0.051887    0.159838
     0.160001    0.160277    0.222960    0.245009    0.254973    0.272187
     0.284565    0.351101    0.354270    0.358897    0.418586    0.431008
     0.470569    0.478069

 Minimum Search - Taking Simple RFO Step
 Searching for Lamda that Minimizes Along All modes
 Value Taken    Lamda =   0.00000000
 Step Taken.  Stepsize is  0.007260

                             Maximum     Tolerance    Cnvgd?
         Gradient           0.000070      0.000300     YES
         Displacement       0.005043      0.001200      NO
         Energy change     -0.000001      0.000001     YES

 Final energy is   -1104.83997640314     


 ******************************
 **  OPTIMIZATION CONVERGED  **
 ******************************

                       Coordinates (Angstroms)
     ATOM                X               Y               Z
      1  S         1.6519035372   -0.3116941519    1.1518591883
      2  C         3.1826731255   -0.0179397164    0.3231037537
      3  C         2.9645228482    0.2816870339   -1.0107975500
      4  C         1.6055931606    0.3084165607   -1.3881652754
      5  C         0.7072584743   -0.0307737623   -0.3498375959
      6  H         1.2565680127    0.5978751860   -2.3739637471
      7  C        -0.7072584743    0.0307737623   -0.3498375959
      8  S        -1.6519035372    0.3116941519    1.1518591883
      9  C        -1.6055931606   -0.3084165607   -1.3881652754
     10  C        -3.1826731255    0.0179397164    0.3231037537
     11  C        -2.9645228482   -0.2816870339   -1.0107975500
     12  H        -3.7751589185   -0.5136830137   -1.6978282569
     13  H         4.1131376336   -0.0335618087    0.8733426642
     14  H         3.7751589185    0.5136830137   -1.6978282569
     15  H        -4.1131376336    0.0335618087    0.8733426642
     16  H        -1.2565680127   -0.5978751860   -2.3739637471

Z-matrix Print:
$molecule
-1 2
S 
C  1 1.765328
H  2 1.081097 1 120.329135
C  2 1.384434 1 110.591552 3 176.794723 0
H  4 1.087642 2 122.502443 1 -178.903192 0
C  4 1.410607 2 114.434885 1 -1.115141 0
H  6 1.085082 4 123.915703 2 -175.261901 0
C  6 1.414277 4 114.265642 2 2.516500 0
C  8 1.415855 6 128.620854 4 -172.875975 0
C  9 1.414277 8 128.620854 6 -40.000012 0
H  10 1.085082 9 121.780321 8 4.955281 0
C  10 1.410607 9 114.265642 8 -172.875975 0
H  12 1.087642 10 123.023567 9 -179.708441 0
C  12 1.384434 10 114.434885 9 2.516500 0
H  14 1.081097 12 128.986080 10 175.325178 0
S  14 1.765328 12 110.591552 10 -1.115141 0
$end

 
 --------------------------------------------------------------
             Orbital Energies (a.u.) and Symmetries
 --------------------------------------------------------------
 
 Alpha MOs, Unrestricted
 -- Occupied --                  
-88.750 -88.750 -10.065 -10.064 -10.056 -10.056 -10.048 -10.048
  1 B     1 A     2 A     2 B     3 B     3 A     4 B     4 A                  
-10.034 -10.034  -7.809  -7.809  -5.773  -5.773  -5.770  -5.770
  5 B     5 A     6 B     6 A     7 B     7 A     8 B     8 A                  
 -5.766  -5.766  -0.723  -0.702  -0.605  -0.581  -0.571  -0.536
  9 A     9 B    10 A    10 B    11 A    12 A    11 B    12 B                  
 -0.446  -0.413  -0.395  -0.369  -0.362  -0.315  -0.261  -0.253
 13 A    14 A    13 B    14 B    15 A    15 B    16 A    17 A                  
 -0.247  -0.239  -0.238  -0.209  -0.208  -0.195  -0.178  -0.121
 16 B    17 B    18 A    18 B    19 A    20 A    19 B    20 B                  
 -0.107  -0.103  -0.053   0.050
 21 B    21 A    22 A    22 B                                                  
 -- Virtual --                   
  0.094   0.096   0.109   0.115   0.124   0.139   0.142   0.150
 23 A    23 B    24 A    24 B    25 A    26 A    25 B    27 A                  
  0.153   0.157   0.168   0.171   0.175   0.177   0.182   0.199
 28 A    26 B    29 A    27 B    28 B    30 A    29 B    31 A                  
  0.201   0.204   0.207   0.214   0.218   0.226   0.229   0.229
 30 B    31 B    32 A    32 B    33 A    34 A    35 A    33 B                  
  0.234   0.234   0.244   0.248   0.251   0.256   0.260   0.270
 34 B    36 A    37 A    35 B    38 A    39 A    36 B    40 A                  
  0.276   0.277   0.281   0.288   0.289   0.300   0.302   0.310
 37 B    38 B    39 B    41 A    40 B    41 B    42 A    43 A                  
  0.312   0.320   0.329   0.332   0.337   0.338   0.344   0.357
 42 B    44 A    45 A    43 B    46 A    44 B    45 B    46 B                  
  0.372   0.387   0.400   0.400   0.404   0.440   0.443   0.445
 47 A    47 B    48 B    48 A    49 A    50 A    49 B    51 A                  
  0.450   0.459   0.472   0.485   0.488   0.515   0.530   0.578
 50 B    52 A    51 B    53 A    52 B    53 B    54 A    54 B                  
  0.590   0.611   0.645   0.678   0.684   0.702   0.710   0.730
 55 A    56 A    55 B    57 A    56 B    57 B    58 A    58 B                  
  0.750   0.761   0.779   0.805   0.818   0.824   0.824   0.838
 59 A    60 A    59 B    61 A    60 B    61 B    62 A    63 A                  
  0.859   0.869   0.874   0.878   0.883   0.905   0.908   0.940
 62 B    64 A    63 B    65 A    64 B    66 A    65 B    67 A                  
  0.953   0.970   0.985   1.001   1.035   1.059   1.084   1.104
 66 B    67 B    68 A    68 B    69 A    69 B    70 A    70 B                  
  1.106   1.107   1.119   1.128   1.133   1.137   1.155   1.156
 71 B    71 A    72 A    72 B    73 A    73 B    74 A    74 B                  
  1.184   1.211   1.218   1.243   1.243   1.262   1.269   1.274
 75 A    76 A    75 B    76 B    77 A    78 A    77 B    78 B                  
  1.315   1.338   1.362   1.399   1.407   1.497   1.497   1.506
 79 A    80 A    79 B    80 B    81 A    81 B    82 A    82 B                  
  1.512   1.526   1.556   1.573   1.637   1.647   1.717   1.771
 83 A    83 B    84 A    84 B    85 A    85 B    86 A    86 B                  
  1.803   1.845   1.860   1.974   2.008   2.037   2.051   2.065
 87 B    87 A    88 B    88 A    89 A    90 A    89 B    90 B                  
  2.086   2.125   2.137   2.159   2.160   2.202   2.220   2.271
 91 A    91 B    92 A    92 B    93 A    93 B    94 A    95 A                  
  2.296   2.305   2.306   2.372   2.406   2.428   2.447   2.516
 94 B    96 A    95 B    96 B    97 A    97 B    98 A    99 A                  
  2.521   2.576   2.598   2.600   2.626   2.656   2.671   2.672
 98 B    99 B   100 A   101 A   100 B   101 B   102 A   102 B                  
  2.690   2.731   2.748   2.756   2.818   2.837   2.869   2.926
103 A   104 A   103 B   105 A   104 B   105 B   106 A   107 A                  
  2.944   3.008   3.055   3.119   3.291   3.358   3.418   3.418
106 B   108 A   107 B   108 B   109 A   109 B   110 A   110 B                  
  3.553   3.577   3.858   3.893   4.099   4.165   4.422   4.460
111 A   111 B   112 A   112 B   113 A   113 B   114 A   115 A                  
  4.482   4.486   4.574   4.688   4.804   4.874
114 B   115 B   116 A   116 B   117 A   117 B                                  
 
 Beta MOs, Unrestricted
 -- Occupied --                  
-88.749 -88.749 -10.063 -10.062 -10.053 -10.053 -10.049 -10.049
  1 B     1 A     2 A     2 B     3 B     3 A     4 B     4 A                  
-10.032 -10.032  -7.809  -7.808  -5.773  -5.773  -5.770  -5.770
  5 B     5 A     6 B     6 A     7 B     7 A     8 B     8 A                  
 -5.765  -5.765  -0.719  -0.699  -0.600  -0.577  -0.568  -0.531
  9 A     9 B    10 A    10 B    11 A    12 A    11 B    12 B                  
 -0.439  -0.411  -0.391  -0.366  -0.361  -0.313  -0.259  -0.251
 13 A    14 A    13 B    14 B    15 A    15 B    16 A    17 A                  
 -0.245  -0.235  -0.230  -0.206  -0.199  -0.192  -0.175  -0.106
 16 B    18 A    17 B    18 B    19 A    20 A    19 B    20 B                  
 -0.098  -0.095  -0.035
 21 B    21 A    22 A                                                          
 -- Virtual --                   
  0.093   0.096   0.103   0.108   0.114   0.124   0.142   0.145
 23 A    22 B    23 B    24 A    24 B    25 A    25 B    26 A                  
  0.151   0.157   0.159   0.170   0.175   0.176   0.177   0.184
 27 A    26 B    28 A    29 A    27 B    28 B    30 A    29 B                  
  0.201   0.202   0.206   0.207   0.215   0.218   0.227   0.229
 30 B    31 A    31 B    32 A    32 B    33 A    34 A    33 B                  
  0.231   0.234   0.235   0.244   0.250   0.253   0.259   0.261
 35 A    36 A    34 B    37 A    35 B    38 A    39 A    36 B                  
  0.271   0.277   0.278   0.283   0.289   0.292   0.301   0.304
 40 A    37 B    38 B    39 B    40 B    41 A    41 B    42 A                  
  0.310   0.313   0.320   0.329   0.333   0.337   0.339   0.344
 43 A    42 B    44 A    45 A    43 B    46 A    44 B    45 B                  
  0.357   0.372   0.388   0.400   0.400   0.404   0.441   0.444
 46 B    47 A    47 B    48 B    48 A    49 A    50 A    49 B                  
  0.449   0.451   0.460   0.473   0.486   0.489   0.518   0.530
 51 A    50 B    52 A    51 B    53 A    52 B    53 B    54 A                  
  0.579   0.592   0.613   0.647   0.681   0.686   0.704   0.713
 54 B    55 A    56 A    55 B    57 A    56 B    57 B    58 A                  
  0.733   0.751   0.762   0.781   0.815   0.822   0.829   0.834
 58 B    59 A    60 A    59 B    61 A    60 B    62 A    61 B                  
  0.840   0.862   0.872   0.878   0.879   0.885   0.910   0.911
 63 A    62 B    64 A    63 B    65 A    64 B    65 B    66 A                  
  0.941   0.956   0.977   0.993   1.007   1.037   1.061   1.086
 67 A    66 B    67 B    68 A    68 B    69 A    69 B    70 A                  
  1.106   1.108   1.109   1.122   1.129   1.135   1.139   1.157
 70 B    71 B    71 A    72 A    72 B    73 A    73 B    74 B                  
  1.157   1.186   1.214   1.220   1.245   1.246   1.264   1.273
 74 A    75 A    76 A    75 B    77 A    76 B    78 A    77 B                  
  1.277   1.318   1.341   1.364   1.401   1.410   1.500   1.502
 78 B    79 A    80 A    79 B    80 B    81 A    81 B    82 A                  
  1.508   1.515   1.532   1.559   1.575   1.639   1.650   1.722
 82 B    83 A    83 B    84 A    84 B    85 A    85 B    86 A                  
  1.775   1.811   1.856   1.870   1.976   2.010   2.042   2.052
 86 B    87 B    87 A    88 B    88 A    89 A    90 A    89 B                  
  2.067   2.087   2.130   2.141   2.163   2.163   2.204   2.223
 90 B    91 A    91 B    92 A    93 A    92 B    93 B    94 A                  
  2.279   2.305   2.310   2.315   2.379   2.410   2.432   2.451
 95 A    94 B    95 B    96 A    96 B    97 A    97 B    98 A                  
  2.518   2.523   2.581   2.601   2.604   2.628   2.657   2.673
 99 A    98 B    99 B   100 A   101 A   100 B   101 B   102 A                  
  2.676   2.695   2.734   2.752   2.761   2.819   2.840   2.873
102 B   103 A   104 A   103 B   105 A   104 B   105 B   106 A                  
  2.928   2.947   3.011   3.057   3.121   3.292   3.359   3.418
107 A   106 B   108 A   107 B   108 B   109 A   109 B   110 A                  
  3.418   3.554   3.578   3.859   3.894   4.101   4.166   4.427
110 B   111 A   111 B   112 A   112 B   113 A   113 B   114 A                  
  4.462   4.487   4.488   4.579   4.693   4.807   4.877
115 A   114 B   115 B   116 A   116 B   117 A   117 B                          
 --------------------------------------------------------------
 
          Ground-State Mulliken Net Atomic Charges

     Atom                 Charge (a.u.)    Spin (a.u.)
  --------------------------------------------------------
      1 S                    -0.258215       0.115589
      2 C                    -0.168008       0.239425
      3 C                    -0.347211      -0.068098
      4 C                     0.005696       0.205414
      5 C                    -0.037492       0.023647
      6 H                     0.091923      -0.006193
      7 C                    -0.037492       0.023647
      8 S                    -0.258215       0.115589
      9 C                     0.005696       0.205414
     10 C                    -0.168008       0.239425
     11 C                    -0.347211      -0.068098
     12 H                     0.070017       0.003622
     13 H                     0.143291      -0.013407
     14 H                     0.070017       0.003622
     15 H                     0.143291      -0.013407
     16 H                     0.091923      -0.006193
  --------------------------------------------------------
  Sum of atomic charges =    -1.000000
  Sum of spin   charges =     1.000000

 -----------------------------------------------------------------
                    Cartesian Multipole Moments
 -----------------------------------------------------------------
    Charge (ESU x 10^10)
                -4.8032
    Dipole Moment (Debye)
         X       0.0000      Y       0.0000      Z      -0.4152
       Tot       0.4152
    Quadrupole Moments (Debye-Ang)
        XX     -99.6509     XY       1.5309     YY     -86.8351
        XZ       0.0000     YZ      -0.0000     ZZ     -83.6984
    Octopole Moments (Debye-Ang^2)
       XXX       0.0000    XXY      -0.0000    XYY       0.0000
       YYY       0.0000    XXZ       8.5077    XYZ      -3.6456
       YYZ       2.0744    XZZ      -0.0000    YZZ       0.0000
       ZZZ      -1.9542
    Hexadecapole Moments (Debye-Ang^3)
      XXXX   -2487.5926   XXXY      12.9846   XXYY    -489.8947
      XYYY     -15.2539   YYYY    -179.5099   XXXZ       0.0000
      XXYZ      -0.0000   XYYZ      -0.0000   YYYZ      -0.0000
      XXZZ    -504.3500   XYZZ       3.6747   YYZZ    -150.4391
      XZZZ       0.0000   YZZZ      -0.0000   ZZZZ    -658.5148
 -----------------------------------------------------------------
Archival summary:
1\1\nid01047\OPT\ProcedureUnspecified\BasisUnspecified\286(1-,2)\TueSep623:31:472016TueSep623:31:472016\0\\#,OPT,ProcedureUnspecified,BasisUnspecified,\\-1,2\S\C,1,1.76533\H,2,1.0811,1,120.329\C,2,1.38443,1,110.592,3,176.795,0\H,4,1.08764,2,122.502,1,-178.903,0\C,4,1.41061,2,114.435,1,-1.11514,0\H,6,1.08508,4,123.916,2,-175.262,0\C,6,1.41428,4,114.266,2,2.5165,0\C,8,1.41586,6,128.621,4,-172.876,0\C,9,1.41428,8,128.621,6,-40,0\H,10,1.08508,9,121.78,8,4.95528,0\C,10,1.41061,9,114.266,8,-172.876,0\H,12,1.08764,10,123.024,9,-179.708,0\C,12,1.38443,10,114.435,9,2.5165,0\H,14,1.0811,12,128.986,10,175.325,0\S,14,1.76533,12,110.592,10,-1.11514,0\\\@

 Total job time:  103.65s(wall), 115.22s(cpu) 
 Tue Sep  6 23:31:47 2016

        *************************************************************
        *                                                           *
        *  Thank you very much for using Q-Chem.  Have a nice day.  *
        *                                                           *
        *************************************************************


0 sent ACK to 0 
now end server 0 ... 
