srun -N 1 --ntasks-per-node 16 --nodelist nid01048 /global/project/projectdirs/jcesr/qchem/qc44/cnl_qc441/dist/exe/qcprog.cori.exe .pt_charged_dft_20.0.in.14043.qcin.1 /dev/shm/eg_qchem/qchem14043/
Process 1 of 16 is on nid01048 - thread support 0
Process 2 of 16 is on nid01048 - thread support 0
Process 3 of 16 is on nid01048 - thread support 0
Process 4 of 16 is on nid01048 - thread support 0
Process 5 of 16 is on nid01048 - thread support 0
Process 6 of 16 is on nid01048 - thread support 0
Process 0 of 16 is on nid01048 - thread support 0
Process 15 of 16 is on nid01048 - thread support 0
initial socket setup ...start
initial socket setup ...done 
now start server 0 ... 
nid01048 10.128.4
Q-Chem Developer Version! Running on 10.128.4.*
                  Welcome to Q-Chem
     A Quantum Leap Into The Future Of Chemistry


 Q-Chem 4.4, Q-Chem, Inc., Pleasanton, CA (2016)

 Y. Shao,  Z. Gan,  E. Epifanovsky,  A. T. B. Gilbert,  M. Wormit,  
 J. Kussmann,  A. W. Lange,  A. Behn,  J. Deng,  X. Feng,  D. Ghosh,  
 M. Goldey,  P. R. Horn,  L. D. Jacobson,  I. Kaliman,  F.Rob,  
 R. Z. Khaliullin,  T. Kus,  A. Landau,  J. Liu,  E. I. Proynov,  Y. M. Rhee,  
 R. M. Richard,  M. A. Rohrdanz,  R. P. Steele,  E. J. Sundstrom,  
 H. L. Woodcock III,  P. M. Zimmerman,  D. Zuev,  B. Albrecht,  E. Alguire,  
 B. Austin,  S. A. Baeppler,  G. J. O. Beran,  Y. A. Bernard,  E. Berquist,  
 K. Brandhorst,  K. B. Bravaya,  S. T. Brown,  D. Casanova,  C.-M. Chang,  
 Y. Chen,  S. H. Chien,  K. D. Closser,  M. P. Coons,  D. L. Crittenden,  
 S. Dasgupta,  M. Diedenhofen,  R. A. DiStasio Jr.,  H. Do,  A. D. Dutoi,  
 R. G. Edgar,  P.-T. Fang,  S. Fatehi,  Q. Feng,  L. Fusti-Molnar,  
 A. Ghysels,  A. Golubeva-Zadorozhnaya,  J. Gomes,  A. Gunina,  
 M. W. D. Hanson-Heine,  P. H. P. Harbach,  A. W. Hauser,  E. G. Hohenstein,  
 Z. C. Holden,  K. Hui,  T.-C. Jagau,  H. Ji,  B. Kaduk,  K. Khistyaev,  
 Jaehoon Kim,  Jihan Kim,  R. A. King,  P. Klunzinger,  D. Kosenkov,  
 T. Kowalczyk,  C. M. Krauter,  A. Kunitsa,  K. U. Lao,  A. Laurent,  
 K. V. Lawler,  D. Lefrancois,  S. Lehtola,  S. V. Levchenko,  C. Y. Lin,  
 Y.-S. Lin,  F. Liu,  E. Livshits,  R. C. Lochan,  A. Luenser,  P. Manohar,  
 S. F. Manzer,  S.-P. Mao,  Y. Mao,  N. Mardirossian,  A. V. Marenich,  
 L. A. Martinez-Martinez,  S. A. Maurer,  N. J. Mayhall,  J.-M. Mewes,  
 A. F. Morrison,  K. Nanda,  C. M. Oana,  R. Olivares-Amaya,  D. P. O'Neill,  
 J. A. Parkhill,  T. M. Perrine,  R. Peverati,  P. A. Pieniazek,  F. Plasser,  
 A. Prociuk,  D. R. Rehn,  E. Rosta,  N. J. Russ,  N. Sergueev,  
 S. M. Sharada,  S. Sharma,  D. W. Small,  A. Sodt,  T. Stauch,  T. Stein,  
 D. Stuck,  Y.-C. Su,  A. J. W. Thom,  T. Tsuchimochi,  L. Vogt,  O. Vydrov,  
 T. Wang,  M. A. Watson,  J. Wenzel,  A. White,  C. F. Williams,  
 V. Vanovschi,  S. Yeganeh,  S. R. Yost,  Z.-Q. You,  I. Y. Zhang,  X. Zhang,  
 Y. Zhao,  B. R. Brooks,  G. K. L. Chan,  D. M. Chipman,  C. J. Cramer,  
 W. A. Goddard III,  M. S. Gordon,  W. J. Hehre,  A. Klamt,  
 H. F. Schaefer III,  M. W. Schmidt,  C. D. Sherrill,  D. G. Truhlar,  
 A. Warshel,  X. Xu,  A. Aspuru-Guzik,  R. Baer,  A. T. Bell,  N. A. Besley,  
 J.-D. Chai,  A. Dreuw,  B. D. Dunietz,  T. R. Furlani,  S. R. Gwaltney,  
 C.-P. Hsu,  Y. Jung,  J. Kong,  D. S. Lambrecht,  W. Liang,  C. Ochsenfeld,  
 V. A. Rassolov,  L. V. Slipchenko,  J. E. Subotnik,  T. Van Voorhis,  
 J. M. Herbert,  A. I. Krylov,  P. M. W. Gill,  M. Head-Gordon

 Contributors to earlier versions of Q-Chem not listed above: 
 R. D. Adamson,  J. Baker,  E. F. C. Byrd,  A. K. Chakraborty,  C.-L. Cheng,  
 H. Dachsel,  R. J. Doerksen,  G. Hawkins,  A. Heyden,  S. Hirata,  
 G. Kedziora,  F. J. Keil,  C. Kelley,  P. P. Korambath,  W. Kurlancheek,  
 A. M. Lee,  M. S. Lee,  D. Liotard,  I. Lotan,  P. E. Maslen,  N. Nair,  
 D. Neuhauser,  R. Olson,  B. Peters,  J. Ritchie,  N. E. Schultz,  
 N. Shenvi,  A. C. Simmonett,  K. S. Thanthiriwatte,  Q. Wu,  W. Zhang

 Please cite Q-Chem as follows:
 Y. Shao et al., Mol. Phys. 113, 184-215 (2015)
 DOI: 10.1080/00268976.2014.952696

 Q-Chem 4.4.1 for Intel X86 EM64T Linux

 Parts of Q-Chem use Armadillo 5.200.1 (Boston Tea Smuggler).
 http://arma.sourceforge.net/

 Q-Chem begins on Tue Sep  6 23:01:24 2016  

Host: nid01047
0

     Scratch files written to /dev/shm/eg_qchem/qchem14043.0//
 Parallel job on  16  processors

Checking the input file for inconsistencies... 	...done.

--------------------------------------------------------------
User input:
--------------------------------------------------------------
$molecule
 -1  2
 S           1.83794975       -1.27576249       -0.14871336
 C           3.23937819       -0.19806434       -0.14823333
 C           2.83626844        1.12431397       -0.14890172
 C           1.43724334        1.31134696       -0.14931220
 C           0.69606563        0.10654716       -0.14908151
 H           0.95807640        2.28459073       -0.14860036
 C          -0.69610330       -0.10652413       -0.14907621
 S          -1.38633149       -1.67523931        0.37760884
 C          -1.75384753        0.75705507       -0.51825790
 C          -3.03811268       -1.11718524        0.08498323
 C          -3.03649468        0.18369901       -0.38286279
 H          -3.95254693        0.71735356       -0.62540048
 H           4.24016475       -0.60708034       -0.14954918
 H           3.54430111        1.94981573       -0.14910914
 H          -3.87590255       -1.77315531        0.27650604
 H          -1.57820916        1.76700307       -0.87316790
$end


$rem
         jobtype = opt
        exchange = b3lyp
           basis = 6-31++g**
  max_scf_cycles = 100
      mem_static = 100
       mem_total = 1500
$end


$opt
CONSTRAINT
tors 4 5 7 9 20.0
ENDCONSTRAINT
$end

--------------------------------------------------------------
 Atom   8: ( -1.6295419726,  0.2296509217,  1.1513125850)
         ->( -1.6295419722,  0.2296508784,  1.1513125899)
 Atom  10: ( -3.1740323918,  0.0451059255,  0.3111175591)
         ->( -3.1740324003,  0.0451061083,  0.3111175229)
 Atom  11: ( -2.9701975079, -0.1874486734, -1.0363066677)
         ->( -2.9701975001, -0.1874487760, -1.0363066388)
 Atom   9: ( -1.6143500752, -0.2246757290, -1.4268762574)
         ->( -1.6143500713, -0.2246757293, -1.4268762766)
 Atom   7: ( -0.7040020743, -0.0162635834, -0.3644648937)
         ->( -0.7040020788, -0.0162634710, -0.3644649287)
 Atom  16: ( -1.2838557781, -0.3976484374, -2.4455316798)
         ->( -1.2838557696, -0.3976483344, -2.4455317107)
 Atom  14: (  3.7919074821,  0.3295064886, -1.7344296741)
         ->(  3.7919074734,  0.3295061791, -1.7344297458)
 Atom  15: ( -4.1034341354,  0.1215685199,  0.8581417418)
         ->( -4.1034341351,  0.1215682643,  0.8581417567)
 ----------------------------------------------------------------
             Standard Nuclear Orientation (Angstroms)
    I     Atom           X                Y                Z
 ----------------------------------------------------------------
    1      S       1.6295419722    -0.2296508784     1.1513125899
    2      C       3.1740324003    -0.0451061083     0.3111175229
    3      C       2.9701975001     0.1874487760    -1.0363066388
    4      C       1.6143500713     0.2246757293    -1.4268762766
    5      C       0.7040020788     0.0162634710    -0.3644649287
    6      H       1.2838557696     0.3976483344    -2.4455317107
    7      C      -0.7040020788    -0.0162634710    -0.3644649287
    8      S      -1.6295419722     0.2296508784     1.1513125899
    9      C      -1.6143500713    -0.2246757293    -1.4268762766
   10      C      -3.1740324003     0.0451061083     0.3111175229
   11      C      -2.9701975001    -0.1874487760    -1.0363066388
   12      H      -3.7919074734    -0.3295061791    -1.7344297458
   13      H       4.1034341351    -0.1215682643     0.8581417567
   14      H       3.7919074734     0.3295061791    -1.7344297458
   15      H      -4.1034341351     0.1215682643     0.8581417567
   16      H      -1.2838557696    -0.3976483344    -2.4455317107
 ----------------------------------------------------------------
 Molecular Point Group                 C2    NOp =  2
 Largest Abelian Subgroup              C2    NOp =  2
 Nuclear Repulsion Energy =   627.4588158326 hartrees
 There are       44 alpha and       43 beta electrons
 Requested basis set is 6-31++G(d,p)
 There are 76 shells and 234 basis functions

 Total QAlloc Memory Limit   1500 MB
 Mega-Array Size        98 MB
 MEM_STATIC part       100 MB
 A cutoff of  1.0D-11 yielded   2489 shell pairs
 There are     24591 function pairs
 
 -------------------------------------------------------
 OpenMP Integral Computing Module                       
 Release: version 1.0, May 2013, Q-Chem Inc. Pittsburgh 
 -------------------------------------------------------
 Integral Job Info:
 Integral job number is                      11
 Integral operator is                         1
 short-range coefficients                     0
 long-range coefficients              100000000
 Omega coefficients                           0
 if combine SR and LR in K                    0
 Integral screening is                        0
 Integral computing path is                   2
 max size of driver memory is            800000
 size of driver memory is                593474
 size of scratch memory is             15166112
 max col of scratch BK array               1296
 max len of scratch array in speh3          155
 max len of scratch index in speh4           18
 max int batch size is                      520
 min int batch size is                       52
 fixed nKL is                                52
 max L of basis functions is                  2
 order of int derivative is                   0
 number of shells is                         76
 number of basis is                         234
 number of cartesian basis is               234
 number of contracted shell pairs          2489
 number of primitive shell pairs           8049
 maxK2 (contraction) of shell pair           36
 max number of K2 of shell pair               1
 max number of CS2 of shell pair            258
 max number of PS2 of shell pair           1500
 mem total for path MDJ                   51992
 -------------------------------------------------------
 Smallest overlap matrix eigenvalue = 7.70E-07

 Q-Chem warning in module /project/projectdirs/jcesr/qchem/qc44/cnl_qc441/compile/cori/qc_src/stvman/mkSTV.C, line 257:

 Overlap eigenvalue is smaller than square root of threshold

 Linear dependence detected in AO basis
 Number of orthogonalized atomic orbitals = 233
 Maximum deviation from orthogonality = 1.342E-10

 Scale SEOQF with 1.000000e-01/1.000000e-01/1.000000e-01

 Standard Electronic Orientation quadrupole field applied
 Nucleus-field energy     =     0.0000000041 hartrees
 Guess from superposition of atomic densities
 Warning:  Energy on first SCF cycle will be non-variational
 An unrestricted hybrid HF-DFT SCF calculation will be
 performed using Pulay DIIS extrapolation
 Exchange:     0.2000 Hartree-Fock + 0.0800 Slater + 0.7200 B88
 Correlation:  0.1900 VWN1RPA + 0.8100 LYP
 Using SG-1 standard quadrature grid
 SCF converges when DIIS error is below 1.0E-08
 Inaccurate integrated density:
   Number of electrons =    87
   Numerical integral  =    85.999911816811
   Relative error      =    -1.1495266473 %
 ---------------------------------------
  Cycle       Energy         DIIS Error
 ---------------------------------------
    1   -1107.0002868866      4.30E-02
    2   -1073.7686540988      6.20E-02
    3   -1110.3468092076      9.32E-02
    4   -1115.4085754547      6.00E-02
    5   -1080.9742133413      1.14E-01
    6   -1084.0697504526      1.02E-01
    7   -1097.7561299055      4.68E-02
    8   -1106.2686603041      3.68E-02
    9   -1166.8566712108      2.71E-01
   10   -1101.7323432549      3.13E-02
   11   -1104.2205703355      8.87E-03
   12   -1105.5908593317      3.58E-02
   13   -1105.2301472681      3.43E-02
   14   -1103.1938124213      3.13E-02
   15   -1102.4371505263      3.10E-02
   16   -1102.1867203937      3.14E-02
   17   -1101.5827544067      2.78E-02
   18   -1102.3612551955      2.18E-02
   19   -1102.9310299372      2.09E-02
   20   -1103.1758852478      1.75E-02
   21   -1104.4237349062      3.16E-03
   22   -1104.8150636118      1.73E-03
   23   -1104.8344450015      9.81E-04
   24   -1104.8417931803      3.14E-04
   25   -1104.8424673548      1.29E-04
   26   -1104.8426214597      4.00E-05
   27   -1104.8426511585      1.32E-05
   28   -1104.8426508069      7.09E-06
   29   -1104.8426576581      2.10E-06
   30   -1104.8426587985      1.22E-06
   31   -1104.8426617573      4.26E-07
   32   -1104.8426572985      1.78E-07
   33   -1104.8426545617      1.61E-07
   34   -1104.8426560280      5.90E-08
   35   -1104.8426596388      8.78E-08
   36   -1104.8426593471      5.06E-08
   37   -1104.8426591107      7.48E-08
   38   -1104.8426590574      6.95E-08
   39   -1104.8426594746      7.22E-08
   40   -1104.8426607788      9.91E-08
   41   -1104.8426611397      1.06E-07
   42   -1104.8426598399      8.50E-08
   43   -1104.8426597969      8.64E-08
   44   -1104.8426601012      9.34E-08
   45   -1104.8426580898      8.49E-08
   46   -1104.8426589205      9.39E-08
   47   -1104.8426582221      8.08E-08
   48   -1104.8426579943      8.19E-08
   49   -1104.8426593113      1.16E-07
   50   -1104.8426598120      1.41E-07
   51   -1104.8426597550      1.31E-07
   52   -1104.8426577033      1.50E-07
   53   -1104.8426557172      5.61E-08
   54   -1104.8426591566      6.20E-08
   55   -1104.8426585635      3.35E-08
   56   -1104.8426585648      1.93E-08
   57   -1104.8426582208      1.12E-08
   58   -1104.8426580868      8.66E-09 Convergence criterion met
 ---------------------------------------
 <S^2> = 0.7627
 SCF time:  CPU 29.56 s  wall 25.64 s
 SCF   energy in the final basis set = -1104.8426580868
 Total energy in the final basis set = -1104.8426580868
 
 --------------------------------------------------------------
             Orbital Energies (a.u.) and Symmetries
 --------------------------------------------------------------
 
 Alpha MOs, Unrestricted
 -- Occupied --                  
-88.750 -88.750 -10.064 -10.064 -10.056 -10.056 -10.048 -10.048
  1 B     1 A     2 A     2 B     3 B     3 A     4 B     4 A                  
-10.033 -10.033  -7.809  -7.809  -5.773  -5.773  -5.770  -5.770
  5 B     5 A     6 B     6 A     7 B     7 A     8 B     8 A                  
 -5.766  -5.766  -0.724  -0.701  -0.606  -0.581  -0.570  -0.536
  9 A     9 B    10 A    10 B    11 A    12 A    11 B    12 B                  
 -0.447  -0.415  -0.394  -0.369  -0.363  -0.314  -0.261  -0.254
 13 A    14 A    13 B    14 B    15 A    15 B    16 A    17 A                  
 -0.246  -0.241  -0.239  -0.209  -0.206  -0.196  -0.176  -0.125
 16 B    17 B    18 A    19 A    18 B    20 A    19 B    20 B                  
 -0.109  -0.101  -0.051   0.049
 21 B    21 A    22 A    22 B                                                  
 -- Virtual --                   
  0.093   0.097   0.109   0.115   0.124   0.142   0.145   0.150
 23 A    23 B    24 A    24 B    25 A    26 A    25 B    27 A                  
  0.152   0.163   0.167   0.171   0.175   0.178   0.188   0.202
 28 A    26 B    29 A    27 B    28 B    30 A    29 B    30 B                  
  0.203   0.207   0.208   0.217   0.217   0.227   0.230   0.233
 31 A    32 A    31 B    32 B    33 A    34 A    33 B    35 A                  
  0.234   0.234   0.241   0.249   0.255   0.259   0.261   0.270
 34 B    36 A    37 A    35 B    38 A    39 A    36 B    40 A                  
  0.279   0.282   0.282   0.285   0.295   0.301   0.305   0.312
 37 B    41 A    38 B    39 B    40 B    41 B    42 A    43 A                  
  0.317   0.318   0.329   0.334   0.336   0.341   0.366   0.374
 42 B    44 A    45 A    46 A    43 B    44 B    47 A    45 B                  
  0.378   0.394   0.395   0.400   0.414   0.437   0.442   0.449
 46 B    47 B    48 A    49 A    48 B    50 A    51 A    49 B                  
  0.456   0.466   0.483   0.492   0.520   0.522   0.570   0.588
 52 A    50 B    53 A    51 B    52 B    54 A    53 B    55 A                  
  0.610   0.644   0.683   0.691   0.699   0.712   0.716   0.749
 56 A    54 B    57 A    55 B    56 B    58 A    57 B    59 A                  
  0.762   0.784   0.805   0.813   0.824   0.830   0.837   0.861
 60 A    58 B    61 A    59 B    60 B    62 A    63 A    64 A                  
  0.867   0.870   0.873   0.887   0.906   0.912   0.938   0.948
 61 B    65 A    62 B    63 B    66 A    64 B    67 A    65 B                  
  0.979   0.987   1.012   1.033   1.067   1.081   1.103   1.105
 66 B    68 A    67 B    69 A    68 B    70 A    69 B    71 A                  
  1.112   1.115   1.120   1.131   1.137   1.148   1.158   1.184
 72 A    70 B    71 B    73 A    72 B    73 B    74 A    75 A                  
  1.189   1.222   1.237   1.252   1.261   1.274   1.315   1.326
 76 A    74 B    77 A    75 B    78 A    76 B    79 A    77 B                  
  1.338   1.342   1.399   1.405   1.490   1.506   1.512   1.512
 80 A    78 B    81 A    79 B    80 B    82 A    81 B    83 A                  
  1.526   1.534   1.608   1.655   1.672   1.720   1.748   1.808
 82 B    84 A    83 B    85 A    84 B    86 A    85 B    86 B                  
  1.844   1.862   1.971   1.989   2.032   2.053   2.066   2.087
 87 A    87 B    88 A    89 A    90 A    88 B    89 B    91 A                  
  2.132   2.136   2.162   2.165   2.211   2.228   2.271   2.278
 92 A    90 B    91 B    93 A    94 A    92 B    93 B    95 A                  
  2.312   2.315   2.381   2.414   2.432   2.441   2.512   2.516
 96 A    94 B    95 B    97 A    96 B    98 A    97 B    99 A                  
  2.568   2.599   2.623   2.629   2.659   2.666   2.678   2.697
 98 B   100 A    99 B   101 A   102 A   100 B   101 B   103 A                  
  2.727   2.732   2.746   2.836   2.846   2.874   2.914   2.958
104 A   105 A   102 B   103 B   104 B   106 A   107 A   105 B                  
  2.999   3.095   3.147   3.288   3.373   3.418   3.420   3.550
108 A   106 B   107 B   109 A   108 B   110 A   109 B   111 A                  
  3.584   3.857   3.899   4.101   4.173   4.405   4.456   4.464
110 B   112 A   111 B   113 A   112 B   114 A   115 A   113 B                  
  4.483   4.570   4.692   4.801   4.892
114 B   116 A   115 B   117 A   116 B                                          
 
 Beta MOs, Unrestricted
 -- Occupied --                  
-88.749 -88.749 -10.062 -10.062 -10.052 -10.052 -10.049 -10.049
  1 B     1 A     2 A     2 B     3 B     3 A     4 B     4 A                  
-10.031 -10.031  -7.808  -7.808  -5.773  -5.773  -5.769  -5.769
  5 B     5 A     6 B     6 A     7 B     7 A     8 B     8 A                  
 -5.764  -5.764  -0.720  -0.698  -0.601  -0.577  -0.567  -0.531
  9 A     9 B    10 A    10 B    11 A    12 A    11 B    12 B                  
 -0.440  -0.413  -0.390  -0.366  -0.362  -0.313  -0.259  -0.253
 13 A    14 A    13 B    14 B    15 A    15 B    16 A    17 A                  
 -0.244  -0.236  -0.231  -0.204  -0.199  -0.194  -0.174  -0.110
 16 B    18 A    17 B    18 B    19 A    20 A    19 B    20 B                  
 -0.099  -0.093  -0.033
 21 B    21 A    22 A                                                          
 -- Virtual --                   
  0.093   0.096   0.102   0.108   0.114   0.124   0.145   0.146
 23 A    22 B    23 B    24 A    24 B    25 A    25 B    26 A                  
  0.152   0.158   0.163   0.169   0.175   0.176   0.178   0.189
 27 A    28 A    26 B    29 A    27 B    28 B    30 A    29 B                  
  0.202   0.205   0.208   0.211   0.217   0.218   0.228   0.230
 30 B    31 A    32 A    31 B    33 A    32 B    34 A    33 B                  
  0.234   0.235   0.236   0.242   0.250   0.257   0.262   0.262
 35 A    34 B    36 A    37 A    35 B    38 A    39 A    36 B                  
  0.271   0.280   0.283   0.285   0.287   0.295   0.302   0.309
 40 A    37 B    38 B    41 A    39 B    40 B    41 B    42 A                  
  0.312   0.318   0.319   0.330   0.334   0.337   0.341   0.367
 43 A    44 A    42 B    45 A    46 A    43 B    44 B    47 A                  
  0.374   0.378   0.395   0.395   0.400   0.414   0.441   0.443
 45 B    46 B    48 A    47 B    49 A    48 B    50 A    51 A                  
  0.451   0.457   0.467   0.483   0.492   0.523   0.523   0.572
 49 B    52 A    50 B    53 A    51 B    54 A    52 B    53 B                  
  0.590   0.612   0.647   0.686   0.693   0.700   0.714   0.719
 55 A    56 A    54 B    57 A    55 B    56 B    58 A    57 B                  
  0.750   0.764   0.787   0.815   0.820   0.832   0.834   0.839
 59 A    60 A    58 B    61 A    59 B    60 B    62 A    63 A                  
  0.862   0.870   0.873   0.878   0.890   0.912   0.914   0.940
 64 A    61 B    65 A    62 B    63 B    66 A    64 B    67 A                  
  0.950   0.986   0.995   1.018   1.035   1.068   1.083   1.105
 65 B    66 B    68 A    67 B    69 A    68 B    70 A    71 A                  
  1.106   1.115   1.116   1.122   1.133   1.138   1.149   1.160
 69 B    70 B    72 A    71 B    73 A    72 B    73 B    74 A                  
  1.187   1.192   1.223   1.239   1.256   1.263   1.278   1.319
 75 A    76 A    74 B    77 A    75 B    78 A    76 B    79 A                  
  1.328   1.340   1.345   1.402   1.410   1.492   1.509   1.516
 77 B    80 A    78 B    81 A    79 B    80 B    82 A    81 B                  
  1.517   1.531   1.537   1.610   1.656   1.675   1.726   1.753
 83 A    82 B    84 A    83 B    85 A    84 B    86 A    85 B                  
  1.815   1.854   1.872   1.975   1.990   2.036   2.054   2.067
 86 B    87 A    87 B    88 A    89 A    90 A    88 B    89 B                  
  2.089   2.136   2.140   2.166   2.168   2.215   2.230   2.279
 91 A    92 A    90 B    91 B    93 A    94 A    92 B    93 B                  
  2.286   2.321   2.321   2.389   2.418   2.436   2.444   2.515
 95 A    96 A    94 B    95 B    97 A    96 B    98 A    97 B                  
  2.518   2.573   2.601   2.623   2.631   2.663   2.669   2.681
 99 A    98 B   100 A    99 B   101 A   102 A   100 B   101 B                  
  2.701   2.731   2.736   2.750   2.838   2.847   2.878   2.916
103 A   104 A   105 A   102 B   103 B   104 B   106 A   107 A                  
  2.961   3.001   3.098   3.148   3.289   3.374   3.418   3.420
105 B   108 A   106 B   107 B   109 A   108 B   110 A   109 B                  
  3.551   3.585   3.858   3.900   4.103   4.175   4.409   4.458
111 A   110 B   112 A   111 B   113 A   112 B   114 A   115 A                  
  4.468   4.485   4.575   4.698   4.804   4.895
113 B   114 B   116 A   115 B   117 A   116 B                                  
 --------------------------------------------------------------
 
          Ground-State Mulliken Net Atomic Charges

     Atom                 Charge (a.u.)    Spin (a.u.)
  --------------------------------------------------------
      1 S                    -0.315105       0.108623
      2 C                    -0.093678       0.242745
      3 C                    -0.315536      -0.074459
      4 C                     0.152699       0.234098
      5 C                    -0.230817       0.007769
      6 H                     0.080453      -0.007917
      7 C                    -0.230817       0.007769
      8 S                    -0.315105       0.108623
      9 C                     0.152699       0.234098
     10 C                    -0.093678       0.242745
     11 C                    -0.315536      -0.074459
     12 H                     0.073543       0.003922
     13 H                     0.148441      -0.014782
     14 H                     0.073543       0.003922
     15 H                     0.148441      -0.014782
     16 H                     0.080453      -0.007917
  --------------------------------------------------------
  Sum of atomic charges =    -1.000000
  Sum of spin   charges =     1.000000

 -----------------------------------------------------------------
                    Cartesian Multipole Moments
 -----------------------------------------------------------------
    Charge (ESU x 10^10)
                -4.8032
    Dipole Moment (Debye)
         X      -0.0000      Y      -0.0000      Z      -0.3745
       Tot       0.3745
    Quadrupole Moments (Debye-Ang)
        XX     -99.1366     XY       0.1822     YY     -87.1300
        XZ       0.0000     YZ       0.0000     ZZ     -83.4331
    Octopole Moments (Debye-Ang^2)
       XXX      -0.0000    XXY      -0.0000    XYY      -0.0000
       YYY      -0.0000    XXZ       9.3441    XYZ      -3.0638
       YYZ       4.5233    XZZ      -0.0000    YZZ      -0.0000
       ZZZ       1.0115
    Hexadecapole Moments (Debye-Ang^3)
      XXXX   -2466.7764   XXXY      -0.8022   XXYY    -487.2595
      XYYY      -4.9472   YYYY    -161.3942   XXXZ       0.0000
      XXYZ       0.0000   XYYZ       0.0000   YYYZ       0.0000
      XXZZ    -501.4048   XYZZ       2.2062   YYZZ    -154.3711
      XZZZ       0.0000   YZZZ       0.0000   ZZZZ    -666.8039
 -----------------------------------------------------------------
 Calculating analytic gradient of the SCF energy
 Gradient of SCF Energy
            1           2           3           4           5           6
    1  -0.0023684   0.0000751   0.0003953   0.0005653  -0.0021328   0.0002246
    2  -0.0013913  -0.0001746   0.0021439   0.0028770  -0.0011690  -0.0011873
    3   0.0006031  -0.0016236   0.0012691   0.0011042  -0.0011950  -0.0001987
            7           8           9          10          11          12
    1   0.0021328   0.0023684  -0.0005653  -0.0000751  -0.0003953   0.0000038
    2   0.0011690   0.0013913  -0.0028770   0.0001746  -0.0021439   0.0001154
    3  -0.0011950   0.0006031   0.0011042  -0.0016236   0.0012691   0.0000938
           13          14          15          16
    1  -0.0000171  -0.0000038   0.0000171  -0.0002246
    2  -0.0011304  -0.0001154   0.0011304   0.0011873
    3  -0.0000528   0.0000938  -0.0000528  -0.0001987
 Max gradient component =       2.877E-03
 RMS gradient           =       1.240E-03
 Gradient time:  CPU 1.81 s  wall 1.77 s
 Geometry Optimization Parameters
   NAtoms,    NIC,     NZ,  NCons,   NDum,   NFix, NCnnct, MaxDiis
       16     111       0       1       0       0       0       0


** CONSTRAINED OPTIMIZATION IN DELOCALIZED INTERNAL COORDINATES **
   Searching for a Minimum

   Optimization Cycle:   1

                       Coordinates (Angstroms)
     ATOM                X               Y               Z
      1  S         1.6295419722   -0.2296508784    1.1513125899
      2  C         3.1740324003   -0.0451061083    0.3111175229
      3  C         2.9701975001    0.1874487760   -1.0363066388
      4  C         1.6143500713    0.2246757293   -1.4268762766
      5  C         0.7040020788    0.0162634710   -0.3644649287
      6  H         1.2838557696    0.3976483344   -2.4455317107
      7  C        -0.7040020788   -0.0162634710   -0.3644649287
      8  S        -1.6295419722    0.2296508784    1.1513125899
      9  C        -1.6143500713   -0.2246757293   -1.4268762766
     10  C        -3.1740324003    0.0451061083    0.3111175229
     11  C        -2.9701975001   -0.1874487760   -1.0363066388
     12  H        -3.7919074734   -0.3295061791   -1.7344297458
     13  H         4.1034341351   -0.1215682643    0.8581417567
     14  H         3.7919074734    0.3295061791   -1.7344297458
     15  H        -4.1034341351    0.1215682643    0.8581417567
     16  H        -1.2838557696   -0.3976483344   -2.4455317107
   Point Group: c2    Number of degrees of freedom:    22


   Energy is  -1104.842658087

              Constraints and their Current Values
                                        Value     Constraint
   Dihedral:        4   5   7   9       20.000       20.000

 Attempting to Generate Delocalized Internal Coordinates

 21 Hessian modes will be used to form the next step
  Hessian Eigenvalues:
     0.045000    0.045000    0.045000    0.045000    0.045000    0.045000
     0.160000    0.160000    0.160000    0.221184    0.237470    0.250000
     0.264210    0.283931    0.350974    0.354198    0.358566    0.414224
     0.425056    0.442595    0.471396

 Minimum Search - Taking Simple RFO Step
 Searching for Lamda that Minimizes Along All modes
 Value Taken    Lamda =  -0.00097468
 Step Taken.  Stepsize is  0.114311

                             Maximum     Tolerance    Cnvgd?
         Gradient           0.009120      0.000300      NO
         Displacement       0.080950      0.001200      NO
         Energy change     *********      0.000001      NO


 New Cartesian Coordinates Obtained by Inverse Iteration

 Displacement from previous Coordinates is:  0.288511
 ----------------------------------------------------------------
             Standard Nuclear Orientation (Angstroms)
    I     Atom           X                Y                Z
 ----------------------------------------------------------------
    1      S       1.6611129366    -0.2108934375     1.1685130621
    2      C       3.1900751724    -0.0343720720     0.3006931744
    3      C       2.9615054283     0.1634128166    -1.0493171375
    4      C       1.5989133744     0.2028268539    -1.4145517584
    5      C       0.7061154783     0.0055370704    -0.3354041353
    6      H       1.2495161814     0.3751967036    -2.4270954239
    7      C      -0.7061154783    -0.0055370704    -0.3354041353
    8      S      -1.6611129366     0.2108934375     1.1685130621
    9      C      -1.5989133744    -0.2028268539    -1.4145517584
   10      C      -3.1900751724     0.0343720720     0.3006931744
   11      C      -2.9615054283    -0.1634128166    -1.0493171375
   12      H      -3.7698980207    -0.3000614932    -1.7640529873
   13      H       4.1290392929    -0.0842495138     0.8341777748
   14      H       3.7698980207     0.3000614932    -1.7640529873
   15      H      -4.1290392929     0.0842495138     0.8341777748
   16      H      -1.2495161814    -0.3751967036    -2.4270954239
 ----------------------------------------------------------------
 Molecular Point Group                 C2    NOp =  2
 Largest Abelian Subgroup              C2    NOp =  2
 Nuclear Repulsion Energy =   626.1671642815 hartrees
 There are       44 alpha and       43 beta electrons
 Applying Cartesian multipole field
    Component          Value
    ---------          -----
     (2,0,0)        1.00000E-11
     (0,2,0)        2.00000E-11
     (0,0,2)       -3.00000E-11
 Nucleus-field energy     =     0.0000000041 hartrees
 Requested basis set is 6-31++G(d,p)
 There are 76 shells and 234 basis functions
 A cutoff of  1.0D-11 yielded   2487 shell pairs
 There are     24583 function pairs
 Smallest overlap matrix eigenvalue = 8.80E-07

 Q-Chem warning in module /project/projectdirs/jcesr/qchem/qc44/cnl_qc441/compile/cori/qc_src/stvman/mkSTV.C, line 257:

 Overlap eigenvalue is smaller than square root of threshold

 Linear dependence detected in AO basis
 Number of orthogonalized atomic orbitals = 233
 Maximum deviation from orthogonality = 3.496E-11
 Guess MOs from SCF MO coefficient file
 Reading MOs from coefficient file
 Reading MOs from coefficient file
 An unrestricted hybrid HF-DFT SCF calculation will be
 performed using Pulay DIIS extrapolation
 Exchange:     0.2000 Hartree-Fock + 0.0800 Slater + 0.7200 B88
 Correlation:  0.1900 VWN1RPA + 0.8100 LYP
 Using SG-1 standard quadrature grid
 SCF converges when DIIS error is below 1.0E-08
 Geometry optimization detected.  Setting ReadMinima to 0
 Setting SaveMinima to 0
 ---------------------------------------
  Cycle       Energy         DIIS Error
 ---------------------------------------
    1   -1104.8309636742      1.15E-03
    2   -1104.8430632220      1.70E-04
    3   -1104.8420947212      3.89E-04
    4   -1104.8433082837      2.54E-05
    5   -1104.8433125078      1.28E-05
    6   -1104.8433137807      3.50E-06
    7   -1104.8433138907      8.12E-07
    8   -1104.8433138998      4.00E-07
    9   -1104.8433139009      1.11E-07
   10   -1104.8433139012      4.56E-08
   11   -1104.8433139008      1.52E-08
   12   -1104.8433139017      6.69E-09 Convergence criterion met
 ---------------------------------------
 <S^2> = 0.7627
 SCF time:  CPU 7.86 s  wall 7.06 s
 SCF   energy in the final basis set = -1104.8433139017
 Total energy in the final basis set = -1104.8433139017
 
 --------------------------------------------------------------
             Orbital Energies (a.u.) and Symmetries
 --------------------------------------------------------------
 
 Alpha MOs, Unrestricted
 -- Occupied --                  
-88.750 -88.750 -10.065 -10.064 -10.056 -10.056 -10.049 -10.049
  1 B     1 A     2 A     2 B     3 B     3 A     4 B     4 A                  
-10.033 -10.033  -7.809  -7.809  -5.774  -5.774  -5.770  -5.770
  5 B     5 A     6 B     6 A     7 B     7 A     8 B     8 A                  
 -5.767  -5.767  -0.723  -0.702  -0.605  -0.581  -0.571  -0.536
  9 A     9 B    10 A    10 B    11 A    12 A    11 B    12 B                  
 -0.447  -0.415  -0.394  -0.369  -0.363  -0.315  -0.262  -0.254
 13 A    14 A    13 B    14 B    15 A    15 B    16 A    17 A                  
 -0.246  -0.240  -0.239  -0.209  -0.208  -0.196  -0.177  -0.125
 16 B    17 B    18 A    19 A    18 B    20 A    19 B    20 B                  
 -0.109  -0.102  -0.051   0.049
 21 B    21 A    22 A    22 B                                                  
 -- Virtual --                   
  0.093   0.097   0.109   0.115   0.124   0.143   0.146   0.150
 23 A    23 B    24 A    24 B    25 A    26 A    25 B    27 A                  
  0.151   0.163   0.166   0.171   0.175   0.177   0.188   0.200
 28 A    26 B    29 A    27 B    28 B    30 A    29 B    30 B                  
  0.204   0.207   0.208   0.216   0.217   0.227   0.228   0.233
 31 A    32 A    31 B    32 B    33 A    34 A    33 B    35 A                  
  0.234   0.234   0.241   0.249   0.255   0.259   0.261   0.269
 34 B    36 A    37 A    35 B    38 A    39 A    36 B    40 A                  
  0.277   0.280   0.282   0.285   0.297   0.300   0.305   0.313
 37 B    41 A    38 B    39 B    40 B    41 B    42 A    43 A                  
  0.315   0.318   0.327   0.331   0.336   0.343   0.364   0.370
 42 B    44 A    45 A    46 A    43 B    44 B    47 A    45 B                  
  0.382   0.395   0.396   0.400   0.415   0.437   0.442   0.449
 46 B    47 B    48 A    49 A    48 B    50 A    51 A    49 B                  
  0.455   0.467   0.482   0.492   0.520   0.522   0.569   0.586
 52 A    50 B    53 A    51 B    52 B    54 A    53 B    55 A                  
  0.609   0.645   0.682   0.686   0.700   0.712   0.715   0.750
 56 A    54 B    57 A    55 B    56 B    58 A    57 B    59 A                  
  0.763   0.788   0.804   0.813   0.827   0.827   0.835   0.861
 60 A    58 B    61 A    59 B    60 B    62 A    63 A    64 A                  
  0.864   0.870   0.873   0.885   0.907   0.910   0.938   0.947
 61 B    65 A    62 B    63 B    66 A    64 B    67 A    65 B                  
  0.977   0.987   1.007   1.032   1.066   1.081   1.103   1.104
 66 B    68 A    67 B    69 A    68 B    70 A    69 B    71 A                  
  1.113   1.113   1.123   1.130   1.141   1.154   1.156   1.181
 72 A    70 B    71 B    73 A    72 B    73 B    74 A    75 A                  
  1.188   1.223   1.236   1.252   1.258   1.275   1.313   1.326
 76 A    74 B    77 A    75 B    78 A    76 B    79 A    77 B                  
  1.337   1.344   1.397   1.406   1.488   1.504   1.511   1.514
 80 A    78 B    81 A    79 B    80 B    82 A    83 A    81 B                  
  1.525   1.537   1.612   1.652   1.668   1.716   1.751   1.801
 82 B    84 A    83 B    85 A    84 B    86 A    85 B    86 B                  
  1.844   1.860   1.968   1.992   2.031   2.053   2.065   2.087
 87 A    87 B    88 A    89 A    90 A    88 B    89 B    91 A                  
  2.135   2.136   2.160   2.160   2.213   2.224   2.274   2.279
 90 B    92 A    91 B    93 A    94 A    92 B    93 B    95 A                  
  2.307   2.313   2.379   2.411   2.434   2.443   2.513   2.516
 96 A    94 B    95 B    97 A    96 B    98 A    97 B    99 A                  
  2.568   2.599   2.623   2.625   2.664   2.666   2.676   2.693
 98 B   100 A    99 B   101 A   102 A   100 B   101 B   103 A                  
  2.724   2.732   2.747   2.836   2.841   2.874   2.912   2.961
104 A   105 A   102 B   103 B   104 B   106 A   107 A   105 B                  
  3.001   3.090   3.141   3.288   3.370   3.418   3.419   3.549
108 A   106 B   107 B   109 A   108 B   110 A   109 B   111 A                  
  3.583   3.855   3.899   4.100   4.172   4.406   4.455   4.462
110 B   112 A   111 B   113 A   112 B   114 A   115 A   113 B                  
  4.484   4.567   4.689   4.800   4.888
114 B   116 A   115 B   117 A   116 B                                          
 
 Beta MOs, Unrestricted
 -- Occupied --                  
-88.750 -88.750 -10.063 -10.063 -10.053 -10.053 -10.050 -10.050
  1 B     1 A     2 A     2 B     3 B     3 A     4 B     4 A                  
-10.031 -10.031  -7.809  -7.809  -5.773  -5.773  -5.770  -5.770
  5 B     5 A     6 B     6 A     7 B     7 A     8 B     8 A                  
 -5.765  -5.765  -0.720  -0.699  -0.600  -0.578  -0.568  -0.531
  9 A     9 B    10 A    10 B    11 A    12 A    11 B    12 B                  
 -0.440  -0.412  -0.390  -0.366  -0.362  -0.313  -0.260  -0.252
 13 A    14 A    13 B    14 B    15 A    15 B    16 A    17 A                  
 -0.244  -0.236  -0.230  -0.206  -0.200  -0.194  -0.174  -0.110
 16 B    18 A    17 B    18 B    19 A    20 A    19 B    20 B                  
 -0.099  -0.093  -0.033
 21 B    21 A    22 A                                                          
 -- Virtual --                   
  0.093   0.096   0.102   0.108   0.114   0.124   0.146   0.147
 23 A    22 B    23 B    24 A    24 B    25 A    25 B    26 A                  
  0.151   0.158   0.163   0.168   0.175   0.176   0.177   0.189
 27 A    28 A    26 B    29 A    27 B    28 B    30 A    29 B                  
  0.200   0.205   0.208   0.210   0.217   0.218   0.228   0.228
 30 B    31 A    32 A    31 B    33 A    32 B    33 B    34 A                  
  0.234   0.235   0.236   0.242   0.250   0.256   0.262   0.262
 35 A    34 B    36 A    37 A    35 B    38 A    36 B    39 A                  
  0.270   0.279   0.284   0.284   0.287   0.297   0.300   0.309
 40 A    37 B    41 A    38 B    39 B    40 B    41 B    42 A                  
  0.313   0.317   0.319   0.328   0.332   0.337   0.343   0.364
 43 A    42 B    44 A    45 A    46 A    43 B    44 B    47 A                  
  0.370   0.382   0.396   0.396   0.400   0.415   0.440   0.443
 45 B    46 B    47 B    48 A    49 A    48 B    50 A    51 A                  
  0.451   0.456   0.468   0.483   0.492   0.522   0.524   0.571
 49 B    52 A    50 B    53 A    51 B    54 A    52 B    53 B                  
  0.588   0.611   0.648   0.685   0.689   0.702   0.714   0.718
 55 A    56 A    54 B    57 A    55 B    56 B    58 A    57 B                  
  0.751   0.764   0.791   0.815   0.819   0.832   0.835   0.836
 59 A    60 A    58 B    61 A    59 B    62 A    60 B    63 A                  
  0.862   0.867   0.873   0.879   0.887   0.912   0.913   0.940
 64 A    61 B    65 A    62 B    63 B    64 B    66 A    67 A                  
  0.949   0.984   0.994   1.014   1.034   1.067   1.083   1.104
 65 B    66 B    68 A    67 B    69 A    68 B    70 A    71 A                  
  1.105   1.114   1.117   1.125   1.132   1.142   1.155   1.157
 69 B    70 B    72 A    71 B    73 A    72 B    73 B    74 A                  
  1.184   1.191   1.225   1.237   1.256   1.261   1.279   1.318
 75 A    76 A    74 B    77 A    75 B    78 A    76 B    79 A                  
  1.327   1.339   1.346   1.399   1.411   1.491   1.508   1.516
 77 B    80 A    78 B    81 A    79 B    80 B    82 A    83 A                  
  1.519   1.530   1.539   1.614   1.653   1.671   1.723   1.756
 81 B    82 B    84 A    83 B    85 A    84 B    86 A    85 B                  
  1.807   1.854   1.870   1.972   1.994   2.035   2.054   2.066
 86 B    87 A    87 B    88 A    89 A    90 A    88 B    89 B                  
  2.089   2.140   2.140   2.163   2.164   2.217   2.226   2.281
 91 A    90 B    92 A    93 A    91 B    94 A    92 B    93 B                  
  2.287   2.316   2.319   2.387   2.416   2.438   2.446   2.515
 95 A    96 A    94 B    95 B    97 A    96 B    98 A    97 B                  
  2.518   2.572   2.602   2.623   2.627   2.667   2.668   2.679
 99 A    98 B   100 A    99 B   101 A   102 A   100 B   101 B                  
  2.698   2.728   2.736   2.751   2.839   2.842   2.878   2.914
103 A   104 A   105 A   102 B   103 B   104 B   106 A   107 A                  
  2.964   3.003   3.092   3.143   3.289   3.371   3.418   3.419
105 B   108 A   106 B   107 B   109 A   108 B   110 A   109 B                  
  3.550   3.584   3.856   3.900   4.102   4.173   4.410   4.457
111 A   110 B   112 A   111 B   113 A   112 B   114 A   115 A                  
  4.466   4.487   4.573   4.695   4.802   4.891
113 B   114 B   116 A   115 B   117 A   116 B                                  
 --------------------------------------------------------------
 
          Ground-State Mulliken Net Atomic Charges

     Atom                 Charge (a.u.)    Spin (a.u.)
  --------------------------------------------------------
      1 S                    -0.297047       0.108641
      2 C                    -0.111838       0.241367
      3 C                    -0.293776      -0.070037
      4 C                     0.097620       0.228383
      5 C                    -0.197368       0.010586
      6 H                     0.079476      -0.008163
      7 C                    -0.197368       0.010586
      8 S                    -0.297047       0.108641
      9 C                     0.097621       0.228383
     10 C                    -0.111838       0.241367
     11 C                    -0.293776      -0.070037
     12 H                     0.074569       0.004012
     13 H                     0.148365      -0.014789
     14 H                     0.074569       0.004012
     15 H                     0.148365      -0.014789
     16 H                     0.079476      -0.008163
  --------------------------------------------------------
  Sum of atomic charges =    -1.000000
  Sum of spin   charges =     1.000000

 -----------------------------------------------------------------
                    Cartesian Multipole Moments
 -----------------------------------------------------------------
    Charge (ESU x 10^10)
                -4.8032
    Dipole Moment (Debye)
         X      -0.0000      Y       0.0000      Z      -0.4289
       Tot       0.4289
    Quadrupole Moments (Debye-Ang)
        XX     -99.2875     XY       0.4629     YY     -87.1422
        XZ       0.0000     YZ      -0.0000     ZZ     -83.5167
    Octopole Moments (Debye-Ang^2)
       XXX       0.0000    XXY      -0.0000    XYY       0.0000
       YYY       0.0000    XXZ       8.4660    XYZ      -2.6706
       YYZ       3.8332    XZZ      -0.0000    YZZ       0.0000
       ZZZ      -1.3310
    Hexadecapole Moments (Debye-Ang^3)
      XXXX   -2483.1134   XXXY       4.7337   XXYY    -490.5239
      XYYY      -3.0816   YYYY    -157.6529   XXXZ       0.0000
      XXYZ      -0.0000   XYYZ       0.0000   YYYZ      -0.0000
      XXZZ    -504.8550   XYZZ       3.2303   YYZZ    -154.9030
      XZZZ       0.0000   YZZZ      -0.0000   ZZZZ    -671.7167
 -----------------------------------------------------------------
 Calculating analytic gradient of the SCF energy
 Gradient of SCF Energy
            1           2           3           4           5           6
    1   0.0000715   0.0003154   0.0002762  -0.0001068   0.0001708  -0.0000140
    2  -0.0012101   0.0005461  -0.0000508   0.0036794  -0.0034450  -0.0006719
    3   0.0004479  -0.0002088   0.0004896   0.0012835  -0.0017802  -0.0001815
            7           8           9          10          11          12
    1  -0.0001708  -0.0000715   0.0001068  -0.0003154  -0.0002762  -0.0000041
    2   0.0034450   0.0012101  -0.0036794  -0.0005461   0.0000507  -0.0000255
    3  -0.0017802   0.0004479   0.0012835  -0.0002088   0.0004896   0.0000085
           13          14          15          16
    1   0.0000877   0.0000041  -0.0000877   0.0000140
    2  -0.0005633   0.0000255   0.0005633   0.0006719
    3  -0.0000587   0.0000085  -0.0000587  -0.0001815
 Max gradient component =       3.679E-03
 RMS gradient           =       1.182E-03
 Gradient time:  CPU 1.78 s  wall 1.75 s
 Geometry Optimization Parameters
   NAtoms,    NIC,     NZ,  NCons,   NDum,   NFix, NCnnct, MaxDiis
       16     111       0       1       0       0       0       0

 Cartesian Hessian Update
 Hessian Updated using BFGS Update


** CONSTRAINED OPTIMIZATION IN DELOCALIZED INTERNAL COORDINATES **
   Searching for a Minimum

   Optimization Cycle:   2

                       Coordinates (Angstroms)
     ATOM                X               Y               Z
      1  S         1.6611129366   -0.2108934375    1.1685130621
      2  C         3.1900751724   -0.0343720720    0.3006931744
      3  C         2.9615054283    0.1634128166   -1.0493171375
      4  C         1.5989133744    0.2028268539   -1.4145517584
      5  C         0.7061154783    0.0055370704   -0.3354041353
      6  H         1.2495161814    0.3751967036   -2.4270954239
      7  C        -0.7061154783   -0.0055370704   -0.3354041353
      8  S        -1.6611129366    0.2108934375    1.1685130621
      9  C        -1.5989133744   -0.2028268539   -1.4145517584
     10  C        -3.1900751724    0.0343720720    0.3006931744
     11  C        -2.9615054283   -0.1634128166   -1.0493171375
     12  H        -3.7698980207   -0.3000614932   -1.7640529873
     13  H         4.1290392929   -0.0842495138    0.8341777748
     14  H         3.7698980207    0.3000614932   -1.7640529873
     15  H        -4.1290392929    0.0842495138    0.8341777748
     16  H        -1.2495161814   -0.3751967036   -2.4270954239
   Point Group: c2    Number of degrees of freedom:    22


   Energy is  -1104.843313902

              Constraints and their Current Values
                                        Value     Constraint
   Dihedral:        4   5   7   9       20.000       20.000
 Hessian Updated using BFGS Update

 17 Hessian modes will be used to form the next step
  Hessian Eigenvalues:
     0.027216    0.047738    0.159998    0.160000    0.160131    0.220277
     0.228110    0.245669    0.277722    0.284410    0.350981    0.354259
     0.358576    0.414348    0.425635    0.460969    0.470587

 Minimum Search - Taking Simple RFO Step
 Searching for Lamda that Minimizes Along All modes
 Value Taken    Lamda =  -0.00034223
 Step Taken.  Stepsize is  0.106438

                             Maximum     Tolerance    Cnvgd?
         Gradient           0.002196      0.000300      NO
         Displacement       0.075537      0.001200      NO
         Energy change     -0.000656      0.000001      NO


 New Cartesian Coordinates Obtained by Inverse Iteration

 Displacement from previous Coordinates is:  0.192780
 ----------------------------------------------------------------
             Standard Nuclear Orientation (Angstroms)
    I     Atom           X                Y                Z
 ----------------------------------------------------------------
    1      S       1.6711734478    -0.1896315567     1.1790888092
    2      C       3.1919835517    -0.0269940189     0.2955606612
    3      C       2.9534121029     0.1454933515    -1.0568514842
    4      C       1.5885634675     0.1798973637    -1.4103084173
    5      C       0.7057185014    -0.0054803408    -0.3201314591
    6      H       1.2296023454     0.3523620845    -2.4193390881
    7      C      -0.7057185014     0.0054803408    -0.3201314591
    8      S      -1.6711734478     0.1896315567     1.1790888092
    9      C      -1.5885634675    -0.1798973637    -1.4103084173
   10      C      -3.1919835517     0.0269940189     0.2955606612
   11      C      -2.9534121029    -0.1454933515    -1.0568514842
   12      H      -3.7556711520    -0.2785261890    -1.7791669820
   13      H       4.1345070093    -0.0526120907     0.8241105291
   14      H       3.7556711520     0.2785261890    -1.7791669820
   15      H      -4.1345070093     0.0526120907     0.8241105291
   16      H      -1.2296023454    -0.3523620845    -2.4193390881
 ----------------------------------------------------------------
 Molecular Point Group                 C2    NOp =  2
 Largest Abelian Subgroup              C2    NOp =  2
 Nuclear Repulsion Energy =   626.1580108230 hartrees
 There are       44 alpha and       43 beta electrons
 Applying Cartesian multipole field
    Component          Value
    ---------          -----
     (2,0,0)        1.00000E-11
     (0,2,0)        2.00000E-11
     (0,0,2)       -3.00000E-11
 Nucleus-field energy     =     0.0000000040 hartrees
 Requested basis set is 6-31++G(d,p)
 There are 76 shells and 234 basis functions
 A cutoff of  1.0D-11 yielded   2489 shell pairs
 There are     24607 function pairs
 Smallest overlap matrix eigenvalue = 1.00E-06

 Q-Chem warning in module /project/projectdirs/jcesr/qchem/qc44/cnl_qc441/compile/cori/qc_src/stvman/mkSTV.C, line 257:

 Overlap eigenvalue is smaller than square root of threshold

 No. of orbitals has changed due to linear dependencies.  Generating new SCF guess.
 Guess from superposition of atomic densities
 Warning:  Energy on first SCF cycle will be non-variational
 An unrestricted hybrid HF-DFT SCF calculation will be
 performed using Pulay DIIS extrapolation
 Exchange:     0.2000 Hartree-Fock + 0.0800 Slater + 0.7200 B88
 Correlation:  0.1900 VWN1RPA + 0.8100 LYP
 Using SG-1 standard quadrature grid
 SCF converges when DIIS error is below 1.0E-08
 Geometry optimization detected.  Setting ReadMinima to 0
 Setting SaveMinima to 0
 Inaccurate integrated density:
   Number of electrons =    87
   Numerical integral  =    86.000307581313
   Relative error      =    -1.1490717456 %
 ---------------------------------------
  Cycle       Energy         DIIS Error
 ---------------------------------------
    1   -1106.9943300852      4.27E-02
    2   -1104.5995396478      5.34E-03
    3   -1104.0298001098      9.54E-03
    4   -1104.8169046287      1.66E-03
    5   -1104.8344345815      1.06E-03
    6   -1104.8432065409      1.65E-04
    7   -1104.8434752719      7.71E-05
    8   -1104.8435412434      2.45E-05
    9   -1104.8435560519      1.24E-05
   10   -1104.8435623267      3.69E-06
   11   -1104.8435655476      2.76E-06
   12   -1104.8435673509      9.94E-07
   13   -1104.8435680207      3.80E-07
   14   -1104.8435680452      1.99E-07
   15   -1104.8435680476      5.38E-08
   16   -1104.8435680484      2.37E-08
   17   -1104.8435680481      1.22E-08
   18   -1104.8435680475      3.57E-09 Convergence criterion met
 ---------------------------------------
 <S^2> = 0.7627
 SCF time:  CPU 11.82 s  wall 10.52 s
 SCF   energy in the final basis set = -1104.8435680475
 Total energy in the final basis set = -1104.8435680475
 
 --------------------------------------------------------------
             Orbital Energies (a.u.) and Symmetries
 --------------------------------------------------------------
 
 Alpha MOs, Unrestricted
 -- Occupied --                  
-88.751 -88.751 -10.065 -10.064 -10.056 -10.056 -10.049 -10.049
  1 B     1 A     2 A     2 B     3 B     3 A     4 B     4 A                  
-10.033 -10.033  -7.810  -7.810  -5.774  -5.774  -5.771  -5.771
  5 B     5 A     6 B     6 A     7 B     7 A     8 B     8 A                  
 -5.767  -5.767  -0.724  -0.702  -0.605  -0.582  -0.571  -0.535
  9 A     9 B    10 A    10 B    11 A    12 A    11 B    12 B                  
 -0.447  -0.415  -0.393  -0.368  -0.364  -0.315  -0.262  -0.254
 13 A    14 A    13 B    14 B    15 A    15 B    16 A    17 A                  
 -0.245  -0.240  -0.239  -0.209  -0.208  -0.196  -0.177  -0.125
 16 B    17 B    18 A    19 A    18 B    20 A    19 B    20 B                  
 -0.110  -0.102  -0.051   0.048
 21 B    21 A    22 A    22 B                                                  
 -- Virtual --                   
  0.093   0.096   0.109   0.115   0.125   0.144   0.146   0.149
 23 A    23 B    24 A    24 B    25 A    26 A    25 B    27 A                  
  0.150   0.161   0.166   0.171   0.175   0.177   0.183   0.199
 28 A    26 B    29 A    27 B    28 B    30 A    29 B    30 B                  
  0.204   0.206   0.207   0.212   0.217   0.226   0.227   0.233
 31 A    31 B    32 A    32 B    33 A    33 B    34 A    35 A                  
  0.234   0.234   0.241   0.249   0.255   0.259   0.260   0.268
 34 B    36 A    37 A    35 B    38 A    39 A    36 B    40 A                  
  0.276   0.279   0.282   0.284   0.296   0.299   0.305   0.312
 37 B    41 A    38 B    39 B    40 B    41 B    42 A    42 B                  
  0.314   0.318   0.327   0.330   0.337   0.341   0.348   0.363
 43 A    44 A    45 A    46 A    43 B    44 B    45 B    47 A                  
  0.368   0.393   0.396   0.401   0.410   0.437   0.442   0.450
 46 B    47 B    48 A    49 A    48 B    50 A    51 A    49 B                  
  0.455   0.457   0.475   0.482   0.497   0.521   0.522   0.585
 52 A    50 B    51 B    53 A    52 B    54 A    53 B    55 A                  
  0.586   0.609   0.646   0.682   0.694   0.702   0.711   0.733
 54 B    56 A    55 B    57 A    56 B    57 B    58 A    58 B                  
  0.750   0.763   0.792   0.804   0.814   0.826   0.830   0.832
 59 A    60 A    59 B    61 A    60 B    62 A    61 B    63 A                  
  0.862   0.862   0.870   0.873   0.883   0.908   0.911   0.938
 62 B    64 A    65 A    63 B    64 B    66 A    65 B    67 A                  
  0.955   0.977   0.987   1.004   1.032   1.067   1.081   1.103
 66 B    67 B    68 A    68 B    69 A    69 B    70 A    71 A                  
  1.103   1.114   1.116   1.130   1.144   1.152   1.154   1.162
 70 B    72 A    71 B    73 A    72 B    73 B    74 A    74 B                  
  1.179   1.187   1.227   1.235   1.255   1.257   1.278   1.313
 75 A    76 A    75 B    77 A    76 B    78 A    77 B    79 A                  
  1.338   1.338   1.386   1.396   1.414   1.491   1.501   1.512
 80 A    78 B    79 B    81 A    80 B    81 B    82 A    83 A                  
  1.518   1.524   1.539   1.615   1.648   1.666   1.717   1.757
 82 B    83 B    84 A    84 B    85 A    85 B    86 A    86 B                  
  1.796   1.844   1.858   1.968   1.994   2.032   2.057   2.070
 87 B    87 A    88 B    88 A    89 A    90 A    89 B    90 B                  
  2.088   2.138   2.143   2.158   2.160   2.216   2.223   2.278
 91 A    91 B    92 A    93 A    92 B    94 A    93 B    94 B                  
  2.280   2.304   2.313   2.384   2.412   2.439   2.445   2.514
 95 A    96 A    95 B    96 B    97 A    97 B    98 A    98 B                  
  2.516   2.568   2.599   2.619   2.623   2.669   2.669   2.682
 99 A    99 B   100 A   101 A   100 B   102 A   101 B   102 B                  
  2.692   2.724   2.733   2.752   2.836   2.842   2.874   2.912
103 A   104 A   105 A   103 B   104 B   105 B   106 A   107 A                  
  2.966   3.002   3.087   3.141   3.289   3.370   3.417   3.420
106 B   108 A   107 B   108 B   109 A   109 B   110 A   110 B                  
  3.549   3.584   3.855   3.900   4.100   4.172   4.407   4.455
111 A   111 B   112 A   112 B   113 A   113 B   114 A   115 A                  
  4.483   4.498   4.567   4.696   4.800   4.887
114 B   115 B   116 A   116 B   117 A   117 B                                  
 
 Beta MOs, Unrestricted
 -- Occupied --                  
-88.750 -88.750 -10.063 -10.062 -10.053 -10.053 -10.049 -10.049
  1 B     1 A     2 A     2 B     3 B     3 A     4 B     4 A                  
-10.031 -10.031  -7.809  -7.809  -5.774  -5.774  -5.770  -5.770
  5 B     5 A     6 B     6 A     7 B     7 A     8 B     8 A                  
 -5.765  -5.765  -0.720  -0.699  -0.600  -0.578  -0.568  -0.531
  9 A     9 B    10 A    10 B    11 A    12 A    11 B    12 B                  
 -0.440  -0.413  -0.390  -0.366  -0.362  -0.313  -0.260  -0.252
 13 A    14 A    13 B    14 B    15 A    15 B    16 A    17 A                  
 -0.243  -0.236  -0.230  -0.206  -0.200  -0.194  -0.174  -0.110
 16 B    18 A    17 B    18 B    19 A    20 A    19 B    20 B                  
 -0.099  -0.093  -0.032
 21 B    21 A    22 A                                                          
 -- Virtual --                   
  0.093   0.096   0.101   0.108   0.114   0.124   0.146   0.147
 23 A    22 B    23 B    24 A    24 B    25 A    25 B    26 A                  
  0.151   0.159   0.161   0.167   0.175   0.176   0.177   0.183
 27 A    28 A    26 B    29 A    27 B    28 B    30 A    29 B                  
  0.199   0.205   0.208   0.209   0.214   0.217   0.227   0.228
 30 B    31 A    31 B    32 A    32 B    33 A    33 B    34 A                  
  0.234   0.235   0.236   0.242   0.250   0.256   0.261   0.262
 35 A    34 B    36 A    37 A    35 B    38 A    36 B    39 A                  
  0.270   0.278   0.283   0.283   0.286   0.296   0.299   0.309
 40 A    37 B    41 A    38 B    39 B    40 B    41 B    42 A                  
  0.314   0.314   0.319   0.327   0.331   0.338   0.341   0.348
 43 A    42 B    44 A    45 A    46 A    43 B    44 B    45 B                  
  0.363   0.369   0.393   0.397   0.401   0.411   0.439   0.443
 47 A    46 B    47 B    48 A    49 A    48 B    50 A    51 A                  
  0.452   0.455   0.458   0.476   0.482   0.497   0.521   0.525
 49 B    52 A    50 B    51 B    53 A    52 B    54 A    53 B                  
  0.587   0.588   0.610   0.648   0.685   0.697   0.704   0.713
 55 A    54 B    56 A    55 B    57 A    56 B    57 B    58 A                  
  0.735   0.751   0.765   0.796   0.815   0.820   0.831   0.834
 58 B    59 A    60 A    59 B    61 A    60 B    62 A    63 A                  
  0.837   0.863   0.865   0.872   0.881   0.883   0.913   0.915
 61 B    64 A    62 B    65 A    63 B    64 B    65 B    66 A                  
  0.940   0.957   0.984   0.994   1.011   1.034   1.068   1.083
 67 A    66 B    67 B    68 A    68 B    69 A    69 B    70 A                  
  1.103   1.106   1.116   1.118   1.132   1.145   1.154   1.156
 71 A    70 B    71 B    72 A    73 A    72 B    73 B    74 A                  
  1.163   1.182   1.190   1.229   1.236   1.259   1.260   1.282
 74 B    75 A    76 A    75 B    77 A    76 B    78 A    77 B                  
  1.317   1.340   1.340   1.389   1.399   1.418   1.494   1.504
 79 A    80 A    78 B    79 B    81 A    80 B    81 B    82 A                  
  1.516   1.522   1.530   1.542   1.617   1.650   1.669   1.724
 83 A    82 B    83 B    84 A    84 B    85 A    85 B    86 A                  
  1.763   1.801   1.855   1.868   1.972   1.996   2.036   2.058
 86 B    87 B    87 A    88 B    88 A    89 A    90 A    89 B                  
  2.072   2.089   2.142   2.147   2.161   2.164   2.219   2.226
 90 B    91 A    91 B    92 A    93 A    92 B    94 A    93 B                  
  2.285   2.288   2.314   2.319   2.392   2.416   2.442   2.448
 94 B    95 A    96 A    95 B    96 B    97 A    97 B    98 A                  
  2.517   2.518   2.573   2.602   2.623   2.624   2.672   2.674
 98 B    99 A    99 B   100 A   101 A   100 B   102 A   101 B                  
  2.683   2.696   2.728   2.737   2.755   2.839   2.843   2.878
102 B   103 A   104 A   105 A   103 B   104 B   105 B   106 A                  
  2.913   2.969   3.004   3.090   3.142   3.289   3.371   3.418
107 A   106 B   108 A   107 B   108 B   109 A   109 B   110 A                  
  3.420   3.551   3.585   3.857   3.901   4.102   4.174   4.411
110 B   111 A   111 B   112 A   112 B   113 A   113 B   114 A                  
  4.457   4.487   4.501   4.573   4.701   4.802   4.890
115 A   114 B   115 B   116 A   116 B   117 A   117 B                          
 --------------------------------------------------------------
 
          Ground-State Mulliken Net Atomic Charges

     Atom                 Charge (a.u.)    Spin (a.u.)
  --------------------------------------------------------
      1 S                    -0.286828       0.108900
      2 C                    -0.146743       0.240554
      3 C                    -0.346299      -0.068765
      4 C                     0.100506       0.227109
      5 C                    -0.111579       0.011493
      6 H                     0.080697      -0.008380
      7 C                    -0.111578       0.011495
      8 S                    -0.286828       0.108900
      9 C                     0.100506       0.227108
     10 C                    -0.146743       0.240555
     11 C                    -0.346299      -0.068765
     12 H                     0.068294       0.003998
     13 H                     0.141952      -0.014910
     14 H                     0.068294       0.003998
     15 H                     0.141952      -0.014910
     16 H                     0.080697      -0.008380
  --------------------------------------------------------
  Sum of atomic charges =    -1.000000
  Sum of spin   charges =     1.000000

 -----------------------------------------------------------------
                    Cartesian Multipole Moments
 -----------------------------------------------------------------
    Charge (ESU x 10^10)
                -4.8032
    Dipole Moment (Debye)
         X       0.0000      Y       0.0000      Z      -0.4416
       Tot       0.4416
    Quadrupole Moments (Debye-Ang)
        XX     -99.3695     XY       0.7653     YY     -87.1374
        XZ      -0.0000     YZ      -0.0000     ZZ     -83.5363
    Octopole Moments (Debye-Ang^2)
       XXX       0.0001    XXY      -0.0000    XYY       0.0000
       YYY       0.0000    XXZ       7.9765    XYZ      -2.4313
       YYZ       3.4490    XZZ       0.0000    YZZ       0.0000
       ZZZ      -2.4604
    Hexadecapole Moments (Debye-Ang^3)
      XXXX   -2483.9468   XXXY       9.9168   XXYY    -490.4849
      XYYY      -2.4356   YYYY    -154.4007   XXXZ      -0.0000
      XXYZ      -0.0000   XYYZ      -0.0000   YYYZ      -0.0000
      XXZZ    -505.1134   XYZZ       3.9157   YYZZ    -155.4375
      XZZZ      -0.0000   YZZZ      -0.0000   ZZZZ    -675.3376
 -----------------------------------------------------------------
 Calculating analytic gradient of the SCF energy
 Gradient of SCF Energy
            1           2           3           4           5           6
    1   0.0004719  -0.0002879   0.0000462  -0.0001882   0.0000618  -0.0000237
    2  -0.0006759   0.0005996  -0.0010066   0.0037568  -0.0055490  -0.0001695
    3   0.0005132   0.0001671  -0.0003460   0.0010057  -0.0011243  -0.0000872
            7           8           9          10          11          12
    1  -0.0000618  -0.0004719   0.0001882   0.0002879  -0.0000463   0.0000344
    2   0.0055490   0.0006760  -0.0037568  -0.0005996   0.0010066  -0.0002149
    3  -0.0011243   0.0005132   0.0010057   0.0001670  -0.0003460  -0.0000672
           13          14          15          16
    1  -0.0000275  -0.0000344   0.0000274   0.0000237
    2  -0.0001432   0.0002149   0.0001432   0.0001695
    3  -0.0000613  -0.0000672  -0.0000613  -0.0000872
 Max gradient component =       5.549E-03
 RMS gradient           =       1.442E-03
 Gradient time:  CPU 1.86 s  wall 1.77 s
 Geometry Optimization Parameters
   NAtoms,    NIC,     NZ,  NCons,   NDum,   NFix, NCnnct, MaxDiis
       16     111       0       1       0       0       0       0

 Cartesian Hessian Update
 Hessian Updated using BFGS Update


** CONSTRAINED OPTIMIZATION IN DELOCALIZED INTERNAL COORDINATES **
   Searching for a Minimum

   Optimization Cycle:   3

                       Coordinates (Angstroms)
     ATOM                X               Y               Z
      1  S         1.6711734478   -0.1896315567    1.1790888092
      2  C         3.1919835517   -0.0269940189    0.2955606612
      3  C         2.9534121029    0.1454933515   -1.0568514842
      4  C         1.5885634675    0.1798973637   -1.4103084173
      5  C         0.7057185014   -0.0054803408   -0.3201314591
      6  H         1.2296023454    0.3523620845   -2.4193390881
      7  C        -0.7057185014    0.0054803408   -0.3201314591
      8  S        -1.6711734478    0.1896315567    1.1790888092
      9  C        -1.5885634675   -0.1798973637   -1.4103084173
     10  C        -3.1919835517    0.0269940189    0.2955606612
     11  C        -2.9534121029   -0.1454933515   -1.0568514842
     12  H        -3.7556711520   -0.2785261890   -1.7791669820
     13  H         4.1345070093   -0.0526120907    0.8241105291
     14  H         3.7556711520    0.2785261890   -1.7791669820
     15  H        -4.1345070093    0.0526120907    0.8241105291
     16  H        -1.2296023454   -0.3523620845   -2.4193390881
   Point Group: c2    Number of degrees of freedom:    22


   Energy is  -1104.843568048

              Constraints and their Current Values
                                        Value     Constraint
   Dihedral:        4   5   7   9       20.000       20.000
 Hessian Updated using BFGS Update

 18 Hessian modes will be used to form the next step
  Hessian Eigenvalues:
     0.017990    0.045175    0.049265    0.159998    0.160076    0.160136
     0.222233    0.244875    0.251712    0.283788    0.287591    0.351009
     0.354261    0.358649    0.416519    0.426184    0.460487    0.471546

 Minimum Search - Taking Simple RFO Step
 Searching for Lamda that Minimizes Along All modes
 Value Taken    Lamda =  -0.00007572
 Step Taken.  Stepsize is  0.057642

                             Maximum     Tolerance    Cnvgd?
         Gradient           0.001415      0.000300      NO
         Displacement       0.037876      0.001200      NO
         Energy change     -0.000254      0.000001      NO


 New Cartesian Coordinates Obtained by Inverse Iteration

 Displacement from previous Coordinates is:  0.079829
 ----------------------------------------------------------------
             Standard Nuclear Orientation (Angstroms)
    I     Atom           X                Y                Z
 ----------------------------------------------------------------
    1      S       1.6698583444    -0.1771905966     1.1791799646
    2      C       3.1921350796    -0.0236457479     0.2968399107
    3      C       2.9542655405     0.1400501303    -1.0567712956
    4      C       1.5896645341     0.1672739839    -1.4124623386
    5      C       0.7057267357    -0.0111851411    -0.3210556313
    6      H       1.2313194891     0.3382923899    -2.4218166829
    7      C      -0.7057267357     0.0111851411    -0.3210556313
    8      S      -1.6698583444     0.1771905966     1.1791799646
    9      C      -1.5896645341    -0.1672739839    -1.4124623386
   10      C      -3.1921350796     0.0236457479     0.2968399107
   11      C      -2.9542655405    -0.1400501303    -1.0567712956
   12      H      -3.7574204457    -0.2702387958    -1.7784974008
   13      H       4.1337490105    -0.0383883597     0.8275460427
   14      H       3.7574204457     0.2702387958    -1.7784974008
   15      H      -4.1337490105     0.0383883597     0.8275460427
   16      H      -1.2313194891    -0.3382923899    -2.4218166829
 ----------------------------------------------------------------
 Molecular Point Group                 C2    NOp =  2
 Largest Abelian Subgroup              C2    NOp =  2
 Nuclear Repulsion Energy =   626.2937327726 hartrees
 There are       44 alpha and       43 beta electrons
 Applying Cartesian multipole field
    Component          Value
    ---------          -----
     (2,0,0)        1.00000E-11
     (0,2,0)        2.00000E-11
     (0,0,2)       -3.00000E-11
 Nucleus-field energy     =     0.0000000040 hartrees
 Requested basis set is 6-31++G(d,p)
 There are 76 shells and 234 basis functions
 A cutoff of  1.0D-11 yielded   2489 shell pairs
 There are     24607 function pairs
 Smallest overlap matrix eigenvalue = 1.11E-06

 Q-Chem warning in module /project/projectdirs/jcesr/qchem/qc44/cnl_qc441/compile/cori/qc_src/stvman/mkSTV.C, line 257:

 Overlap eigenvalue is smaller than square root of threshold

 Guess MOs from SCF MO coefficient file
 Reading MOs from coefficient file
 Reading MOs from coefficient file
 An unrestricted hybrid HF-DFT SCF calculation will be
 performed using Pulay DIIS extrapolation
 Exchange:     0.2000 Hartree-Fock + 0.0800 Slater + 0.7200 B88
 Correlation:  0.1900 VWN1RPA + 0.8100 LYP
 Using SG-1 standard quadrature grid
 SCF converges when DIIS error is below 1.0E-08
 Geometry optimization detected.  Setting ReadMinima to 0
 Setting SaveMinima to 0
 ---------------------------------------
  Cycle       Energy         DIIS Error
 ---------------------------------------
    1   -1104.8419077041      4.87E-04
    2   -1104.8435905591      5.12E-05
    3   -1104.8435325878      9.95E-05
    4   -1104.8436173707      1.37E-05
    5   -1104.8436186772      6.42E-06
    6   -1104.8436189813      2.57E-06
    7   -1104.8436190327      3.81E-07
    8   -1104.8436190349      1.34E-07
    9   -1104.8436190354      5.92E-08
   10   -1104.8436190361      1.25E-08
   11   -1104.8436190363      6.64E-09 Convergence criterion met
 ---------------------------------------
 <S^2> = 0.7627
 SCF time:  CPU 7.22 s  wall 6.48 s
 SCF   energy in the final basis set = -1104.8436190363
 Total energy in the final basis set = -1104.8436190363
 
 --------------------------------------------------------------
             Orbital Energies (a.u.) and Symmetries
 --------------------------------------------------------------
 
 Alpha MOs, Unrestricted
 -- Occupied --                  
-88.751 -88.751 -10.065 -10.064 -10.056 -10.056 -10.049 -10.049
  1 B     1 A     2 A     2 B     3 B     3 A     4 B     4 A                  
-10.033 -10.033  -7.810  -7.810  -5.774  -5.774  -5.771  -5.771
  5 B     5 A     6 B     6 A     7 B     7 A     8 B     8 A                  
 -5.767  -5.767  -0.724  -0.702  -0.605  -0.582  -0.571  -0.535
  9 A     9 B    10 A    10 B    11 A    12 A    11 B    12 B                  
 -0.447  -0.415  -0.393  -0.368  -0.364  -0.315  -0.262  -0.254
 13 A    14 A    13 B    14 B    15 A    15 B    16 A    17 A                  
 -0.245  -0.240  -0.239  -0.209  -0.208  -0.196  -0.177  -0.126
 16 B    17 B    18 A    19 A    18 B    20 A    19 B    20 B                  
 -0.110  -0.101  -0.051   0.048
 21 B    21 A    22 A    22 B                                                  
 -- Virtual --                   
  0.093   0.096   0.109   0.115   0.125   0.144   0.147   0.149
 23 A    23 B    24 A    24 B    25 A    26 A    25 B    27 A                  
  0.151   0.161   0.165   0.171   0.175   0.177   0.183   0.198
 28 A    26 B    29 A    27 B    28 B    30 A    29 B    30 B                  
  0.204   0.207   0.207   0.212   0.217   0.227   0.227   0.233
 31 A    31 B    32 A    32 B    33 A    33 B    34 A    35 A                  
  0.234   0.234   0.241   0.249   0.255   0.259   0.261   0.268
 34 B    36 A    37 A    35 B    38 A    39 A    36 B    40 A                  
  0.276   0.279   0.281   0.285   0.296   0.300   0.305   0.312
 37 B    41 A    38 B    39 B    40 B    41 B    42 A    42 B                  
  0.314   0.318   0.327   0.330   0.337   0.341   0.349   0.362
 43 A    44 A    45 A    46 A    43 B    44 B    45 B    47 A                  
  0.367   0.394   0.396   0.401   0.412   0.436   0.441   0.450
 46 B    47 B    48 A    49 A    48 B    50 A    51 A    49 B                  
  0.454   0.454   0.476   0.481   0.496   0.521   0.522   0.585
 52 A    50 B    51 B    53 A    52 B    54 A    53 B    55 A                  
  0.586   0.609   0.646   0.682   0.695   0.704   0.711   0.735
 54 B    56 A    55 B    57 A    56 B    57 B    58 A    58 B                  
  0.749   0.763   0.794   0.804   0.814   0.826   0.831   0.831
 59 A    60 A    59 B    61 A    60 B    62 A    61 B    63 A                  
  0.861   0.862   0.870   0.873   0.883   0.908   0.911   0.938
 62 B    64 A    65 A    63 B    64 B    66 A    65 B    67 A                  
  0.955   0.976   0.986   1.003   1.032   1.067   1.080   1.102
 66 B    67 B    68 A    68 B    69 A    69 B    70 A    71 A                  
  1.104   1.114   1.117   1.130   1.145   1.151   1.155   1.162
 70 B    72 A    71 B    73 A    72 B    73 B    74 A    74 B                  
  1.179   1.186   1.229   1.235   1.256   1.257   1.279   1.312
 75 A    76 A    75 B    77 A    76 B    78 A    77 B    79 A                  
  1.337   1.339   1.382   1.396   1.414   1.494   1.498   1.512
 80 A    78 B    79 B    81 A    80 B    81 B    82 A    83 A                  
  1.518   1.524   1.540   1.614   1.646   1.666   1.719   1.762
 82 B    83 B    84 A    84 B    85 A    85 B    86 A    86 B                  
  1.792   1.844   1.858   1.968   1.994   2.032   2.057   2.071
 87 B    87 A    88 B    88 A    89 A    90 A    89 B    90 B                  
  2.087   2.139   2.145   2.157   2.159   2.216   2.222   2.279
 91 A    91 B    92 A    93 A    92 B    94 A    93 B    94 B                  
  2.279   2.303   2.312   2.383   2.413   2.440   2.444   2.515
 95 A    96 A    95 B    96 B    97 A    97 B    98 A    98 B                  
  2.516   2.568   2.599   2.617   2.623   2.670   2.670   2.683
 99 A    99 B   100 A   101 A   100 B   102 A   101 B   102 B                  
  2.691   2.725   2.733   2.752   2.836   2.841   2.874   2.911
103 A   104 A   105 A   103 B   104 B   105 B   106 A   107 A                  
  2.966   3.001   3.087   3.140   3.288   3.370   3.418   3.420
106 B   108 A   107 B   108 B   109 A   109 B   110 A   110 B                  
  3.549   3.584   3.855   3.900   4.100   4.173   4.406   4.455
111 A   111 B   112 A   112 B   113 A   113 B   114 A   115 A                  
  4.484   4.497   4.567   4.696   4.799   4.887
114 B   115 B   116 A   116 B   117 A   117 B                                  
 
 Beta MOs, Unrestricted
 -- Occupied --                  
-88.750 -88.750 -10.063 -10.063 -10.053 -10.053 -10.049 -10.049
  1 B     1 A     2 A     2 B     3 B     3 A     4 B     4 A                  
-10.031 -10.031  -7.809  -7.809  -5.774  -5.774  -5.770  -5.770
  5 B     5 A     6 B     6 A     7 B     7 A     8 B     8 A                  
 -5.765  -5.765  -0.720  -0.699  -0.600  -0.578  -0.568  -0.531
  9 A     9 B    10 A    10 B    11 A    12 A    11 B    12 B                  
 -0.440  -0.413  -0.390  -0.366  -0.362  -0.313  -0.260  -0.252
 13 A    14 A    13 B    14 B    15 A    15 B    16 A    17 A                  
 -0.243  -0.237  -0.230  -0.207  -0.200  -0.194  -0.174  -0.110
 16 B    18 A    17 B    18 B    19 A    20 A    19 B    20 B                  
 -0.099  -0.093  -0.032
 21 B    21 A    22 A                                                          
 -- Virtual --                   
  0.093   0.096   0.101   0.108   0.114   0.124   0.147   0.147
 23 A    22 B    23 B    24 A    24 B    25 A    25 B    26 A                  
  0.151   0.159   0.161   0.167   0.175   0.176   0.177   0.184
 27 A    28 A    26 B    29 A    27 B    28 B    30 A    29 B                  
  0.198   0.205   0.209   0.209   0.215   0.217   0.227   0.228
 30 B    31 A    31 B    32 A    32 B    33 A    33 B    34 A                  
  0.234   0.235   0.236   0.242   0.251   0.256   0.261   0.262
 35 A    34 B    36 A    37 A    35 B    38 A    36 B    39 A                  
  0.270   0.278   0.282   0.283   0.286   0.296   0.300   0.309
 40 A    37 B    38 B    41 A    39 B    40 B    41 B    42 A                  
  0.314   0.314   0.319   0.327   0.331   0.338   0.342   0.350
 43 A    42 B    44 A    45 A    46 A    43 B    44 B    45 B                  
  0.362   0.368   0.394   0.396   0.401   0.413   0.439   0.443
 47 A    46 B    47 B    48 A    49 A    48 B    50 A    51 A                  
  0.452   0.455   0.455   0.477   0.482   0.496   0.521   0.525
 49 B    50 B    52 A    51 B    53 A    52 B    54 A    53 B                  
  0.586   0.587   0.610   0.648   0.685   0.698   0.705   0.713
 55 A    54 B    56 A    55 B    57 A    56 B    57 B    58 A                  
  0.738   0.750   0.765   0.798   0.815   0.820   0.831   0.833
 58 B    59 A    60 A    59 B    61 A    60 B    62 A    63 A                  
  0.839   0.863   0.865   0.873   0.881   0.882   0.913   0.915
 61 B    64 A    62 B    65 A    63 B    64 B    65 B    66 A                  
  0.939   0.958   0.984   0.994   1.009   1.034   1.068   1.082
 67 A    66 B    67 B    68 A    68 B    69 A    69 B    70 A                  
  1.102   1.107   1.117   1.118   1.131   1.146   1.153   1.157
 71 A    70 B    71 B    72 A    73 A    72 B    73 B    74 A                  
  1.162   1.182   1.189   1.231   1.236   1.259   1.260   1.283
 74 B    75 A    76 A    75 B    77 A    76 B    78 A    77 B                  
  1.317   1.339   1.342   1.384   1.399   1.418   1.496   1.502
 79 A    80 A    78 B    79 B    81 A    80 B    81 B    82 A                  
  1.516   1.522   1.530   1.543   1.615   1.648   1.669   1.725
 83 A    82 B    83 B    84 A    84 B    85 A    85 B    86 A                  
  1.767   1.798   1.855   1.868   1.972   1.995   2.036   2.057
 86 B    87 B    87 A    88 B    88 A    89 A    90 A    89 B                  
  2.072   2.089   2.143   2.149   2.160   2.163   2.219   2.224
 90 B    91 A    91 B    92 A    93 A    92 B    94 A    93 B                  
  2.286   2.287   2.313   2.318   2.391   2.417   2.443   2.447
 94 B    95 A    96 A    95 B    96 B    97 A    97 B    98 A                  
  2.517   2.518   2.572   2.601   2.620   2.624   2.673   2.675
 98 B    99 A    99 B   100 A   101 A   100 B   102 A   101 B                  
  2.684   2.695   2.729   2.738   2.756   2.839   2.842   2.878
102 B   103 A   104 A   105 A   103 B   104 B   105 B   106 A                  
  2.913   2.969   3.003   3.090   3.141   3.289   3.371   3.418
107 A   106 B   108 A   107 B   108 B   109 A   109 B   110 A                  
  3.421   3.551   3.585   3.856   3.901   4.102   4.175   4.411
110 B   111 A   111 B   112 A   112 B   113 A   113 B   114 A                  
  4.456   4.488   4.500   4.573   4.701   4.802   4.890
115 A   114 B   115 B   116 A   116 B   117 A   117 B                          
 --------------------------------------------------------------
 
          Ground-State Mulliken Net Atomic Charges

     Atom                 Charge (a.u.)    Spin (a.u.)
  --------------------------------------------------------
      1 S                    -0.291730       0.108580
      2 C                    -0.139463       0.240423
      3 C                    -0.360272      -0.068823
      4 C                     0.115903       0.227913
      5 C                    -0.116449       0.011343
      6 H                     0.080486      -0.008542
      7 C                    -0.116449       0.011343
      8 S                    -0.291730       0.108580
      9 C                     0.115903       0.227913
     10 C                    -0.139463       0.240423
     11 C                    -0.360272      -0.068823
     12 H                     0.068279       0.004008
     13 H                     0.143245      -0.014903
     14 H                     0.068279       0.004008
     15 H                     0.143245      -0.014903
[...]
      4 C                     0.131951       0.229231
      5 C                    -0.120477       0.011244
      6 H                     0.079710      -0.009029
      7 C                    -0.120477       0.011244
      8 S                    -0.299721       0.107831
      9 C                     0.131951       0.229231
     10 C                    -0.132639       0.240717
     11 C                    -0.371867      -0.069018
     12 H                     0.068426       0.004084
     13 H                     0.144617      -0.015060
     14 H                     0.068426       0.004084
     15 H                     0.144617      -0.015060
     16 H                     0.079710      -0.009029
  --------------------------------------------------------
  Sum of atomic charges =    -1.000000
  Sum of spin   charges =     1.000000

 -----------------------------------------------------------------
                    Cartesian Multipole Moments
 -----------------------------------------------------------------
    Charge (ESU x 10^10)
                -4.8032
    Dipole Moment (Debye)
         X       0.0000      Y       0.0000      Z      -0.4229
       Tot       0.4229
    Quadrupole Moments (Debye-Ang)
        XX     -99.3040     XY       0.8262     YY     -87.1493
        XZ      -0.0000     YZ      -0.0000     ZZ     -83.4970
    Octopole Moments (Debye-Ang^2)
       XXX       0.0000    XXY      -0.0000    XYY       0.0000
       YYY       0.0000    XXZ       8.2578    XYZ      -2.1484
       YYZ       3.5774    XZZ       0.0000    YZZ       0.0000
       ZZZ      -2.0199
    Hexadecapole Moments (Debye-Ang^3)
      XXXX   -2480.4495   XXXY       8.7576   XXYY    -489.6702
      XYYY      -5.3302   YYYY    -151.3692   XXXZ      -0.0000
      XXYZ      -0.0000   XYYZ      -0.0000   YYYZ      -0.0000
      XXZZ    -504.1388   XYZZ       3.1915   YYZZ    -155.7716
      XZZZ       0.0000   YZZZ      -0.0000   ZZZZ    -675.9055
 -----------------------------------------------------------------
 Calculating analytic gradient of the SCF energy
 Gradient of SCF Energy
            1           2           3           4           5           6
    1  -0.0000084   0.0000120   0.0000040   0.0000693  -0.0001767  -0.0000001
    2  -0.0000191  -0.0000684   0.0001112   0.0031541  -0.0072215   0.0000378
    3   0.0000397  -0.0000242   0.0000259   0.0005946  -0.0006324   0.0000022
            7           8           9          10          11          12
    1   0.0001767   0.0000084  -0.0000693  -0.0000120  -0.0000040  -0.0000012
    2   0.0072215   0.0000191  -0.0031541   0.0000684  -0.0001112   0.0000509
    3  -0.0006324   0.0000397   0.0005946  -0.0000242   0.0000259  -0.0000091
           13          14          15          16
    1  -0.0000009   0.0000012   0.0000009   0.0000001
    2   0.0000436  -0.0000509  -0.0000436  -0.0000378
    3   0.0000033  -0.0000091   0.0000033   0.0000022
 Max gradient component =       7.222E-03
 RMS gradient           =       1.619E-03
 Gradient time:  CPU 1.75 s  wall 1.76 s
 Geometry Optimization Parameters
   NAtoms,    NIC,     NZ,  NCons,   NDum,   NFix, NCnnct, MaxDiis
       16     111       0       1       0       0       0       0

 Cartesian Hessian Update
 Hessian Updated using BFGS Update


** CONSTRAINED OPTIMIZATION IN DELOCALIZED INTERNAL COORDINATES **
   Searching for a Minimum

   Optimization Cycle:   8

                       Coordinates (Angstroms)
     ATOM                X               Y               Z
      1  S         1.6621591109   -0.1646161391    1.1777716710
      2  C         3.1888913049   -0.0151261061    0.3018967741
      3  C         2.9573170711    0.1398666936   -1.0536589147
      4  C         1.5948016838    0.1554726989   -1.4174100584
      5  C         0.7056729765   -0.0161568842   -0.3288847502
      6  H         1.2419716942    0.3135440960   -2.4308609954
      7  C        -0.7056729765    0.0161568842   -0.3288847502
      8  S        -1.6621591109    0.1646161391    1.1777716710
      9  C        -1.5948016838   -0.1554726989   -1.4174100584
     10  C        -3.1888913049    0.0151261061    0.3018967741
     11  C        -2.9573170711   -0.1398666936   -1.0536589147
     12  H        -3.7640615725   -0.2587114299   -1.7734039235
     13  H         4.1277459328   -0.0246366225    0.8375127659
     14  H         3.7640615725    0.2587114299   -1.7734039235
     15  H        -4.1277459328    0.0246366225    0.8375127659
     16  H        -1.2419716942   -0.3135440960   -2.4308609954
   Point Group: c2    Number of degrees of freedom:    22


   Energy is  -1104.843645103

              Constraints and their Current Values
                                        Value     Constraint
   Dihedral:        4   5   7   9       20.000       20.000
 Hessian Updated using BFGS Update

 21 Hessian modes will be used to form the next step
  Hessian Eigenvalues:
     0.008517    0.015367    0.041610    0.045002    0.045071    0.050169
     0.159960    0.160106    0.160459    0.222752    0.232784    0.254418
     0.278884    0.284833    0.351102    0.354400    0.358909    0.418945
     0.429975    0.461205    0.472226

 Minimum Search - Taking Simple RFO Step
 Searching for Lamda that Minimizes Along All modes
 Value Taken    Lamda =   0.00000000
 Step Taken.  Stepsize is  0.005474

                             Maximum     Tolerance    Cnvgd?
         Gradient           0.000078      0.000300     YES
         Displacement       0.003228      0.001200      NO
         Energy change     -0.000001      0.000001     YES

 Final energy is   -1104.84364510293     


 ******************************
 **  OPTIMIZATION CONVERGED  **
 ******************************

                       Coordinates (Angstroms)
     ATOM                X               Y               Z
      1  S         1.6621591109   -0.1646161391    1.1777716710
      2  C         3.1888913049   -0.0151261061    0.3018967741
      3  C         2.9573170711    0.1398666936   -1.0536589147
      4  C         1.5948016838    0.1554726989   -1.4174100584
      5  C         0.7056729765   -0.0161568842   -0.3288847502
      6  H         1.2419716942    0.3135440960   -2.4308609954
      7  C        -0.7056729765    0.0161568842   -0.3288847502
      8  S        -1.6621591109    0.1646161391    1.1777716710
      9  C        -1.5948016838   -0.1554726989   -1.4174100584
     10  C        -3.1888913049    0.0151261061    0.3018967741
     11  C        -2.9573170711   -0.1398666936   -1.0536589147
     12  H        -3.7640615725   -0.2587114299   -1.7734039235
     13  H         4.1277459328   -0.0246366225    0.8375127659
     14  H         3.7640615725    0.2587114299   -1.7734039235
     15  H        -4.1277459328    0.0246366225    0.8375127659
     16  H        -1.2419716942   -0.3135440960   -2.4308609954

Z-matrix Print:
$molecule
-1 2
S 
C  1 1.766470
H  2 1.080936 1 120.281218
C  2 1.383901 1 110.519815 3 178.367716 0
H  4 1.087655 2 122.432616 1 -179.431055 0
C  4 1.410321 2 114.553304 1 -0.544900 0
H  6 1.084693 4 123.838106 2 -177.107644 0
C  6 1.415943 4 114.018668 2 1.129936 0
C  8 1.411716 6 128.682341 4 -176.505767 0
C  9 1.415943 8 128.682341 6 -20.000014 0
H  10 1.084693 9 122.118943 8 1.765808 0
C  10 1.410321 9 114.018668 8 -176.505767 0
H  12 1.087655 10 123.004169 9 -179.991071 0
C  12 1.383901 10 114.553304 9 1.129936 0
H  14 1.080936 12 129.174707 10 177.636756 0
S  14 1.766470 12 110.519815 10 -0.544900 0
$end

 
 --------------------------------------------------------------
             Orbital Energies (a.u.) and Symmetries
 --------------------------------------------------------------
 
 Alpha MOs, Unrestricted
 -- Occupied --                  
-88.751 -88.751 -10.065 -10.064 -10.056 -10.056 -10.049 -10.049
  1 B     1 A     2 A     2 B     3 B     3 A     4 B     4 A                  
-10.033 -10.033  -7.810  -7.810  -5.774  -5.774  -5.771  -5.771
  5 B     5 A     6 B     6 A     7 B     7 A     8 B     8 A                  
 -5.767  -5.767  -0.724  -0.702  -0.605  -0.582  -0.571  -0.535
  9 A     9 B    10 A    10 B    11 A    12 A    11 B    12 B                  
 -0.447  -0.415  -0.393  -0.368  -0.364  -0.315  -0.262  -0.254
 13 A    14 A    13 B    14 B    15 A    15 B    16 A    17 A                  
 -0.245  -0.240  -0.239  -0.209  -0.208  -0.197  -0.176  -0.126
 16 B    17 B    18 A    19 A    18 B    20 A    19 B    20 B                  
 -0.110  -0.101  -0.051   0.048
 21 B    21 A    22 A    22 B                                                  
 -- Virtual --                   
  0.093   0.096   0.109   0.115   0.125   0.144   0.147   0.149
 23 A    23 B    24 A    24 B    25 A    26 A    25 B    27 A                  
  0.151   0.160   0.165   0.171   0.176   0.177   0.184   0.198
 28 A    26 B    29 A    27 B    28 B    30 A    29 B    30 B                  
  0.205   0.207   0.208   0.213   0.217   0.227   0.228   0.233
 31 A    32 A    31 B    32 B    33 A    33 B    34 A    35 A                  
  0.234   0.234   0.241   0.249   0.256   0.259   0.261   0.269
 34 B    36 A    37 A    35 B    38 A    39 A    36 B    40 A                  
  0.276   0.279   0.281   0.285   0.296   0.301   0.306   0.312
 37 B    41 A    38 B    39 B    40 B    41 B    42 A    42 B                  
  0.314   0.318   0.326   0.329   0.337   0.341   0.351   0.362
 43 A    44 A    45 A    46 A    43 B    44 B    45 B    47 A                  
  0.367   0.394   0.396   0.401   0.413   0.436   0.441   0.450
 46 B    47 B    48 A    49 A    48 B    50 A    51 A    49 B                  
  0.451   0.454   0.477   0.481   0.496   0.520   0.522   0.585
 50 B    52 A    51 B    53 A    52 B    54 A    53 B    54 B                  
  0.585   0.609   0.646   0.683   0.697   0.705   0.711   0.738
 55 A    56 A    55 B    57 A    56 B    57 B    58 A    58 B                  
  0.748   0.763   0.795   0.805   0.814   0.826   0.831   0.833
 59 A    60 A    59 B    61 A    60 B    62 A    63 A    61 B                  
  0.861   0.861   0.870   0.872   0.882   0.908   0.912   0.938
 62 B    64 A    65 A    63 B    64 B    66 A    65 B    67 A                  
  0.956   0.976   0.986   1.002   1.032   1.068   1.079   1.101
 66 B    67 B    68 A    68 B    69 A    69 B    70 A    71 A                  
  1.105   1.114   1.118   1.130   1.144   1.152   1.155   1.160
 70 B    72 A    71 B    73 A    72 B    73 B    74 A    74 B                  
  1.179   1.184   1.229   1.235   1.255   1.258   1.280   1.312
 75 A    76 A    75 B    77 A    76 B    78 A    77 B    79 A                  
  1.338   1.340   1.377   1.396   1.412   1.499   1.499   1.511
 80 A    78 B    79 B    81 A    80 B    82 A    81 B    83 A                  
  1.515   1.525   1.539   1.611   1.647   1.667   1.720   1.768
 82 B    83 B    84 A    84 B    85 A    85 B    86 A    86 B                  
  1.787   1.844   1.858   1.968   1.992   2.032   2.056   2.072
 87 B    87 A    88 B    88 A    89 A    90 A    89 B    90 B                  
  2.087   2.141   2.147   2.156   2.158   2.215   2.222   2.278
 91 A    91 B    92 A    92 B    93 A    94 A    93 B    94 B                  
  2.280   2.301   2.310   2.384   2.414   2.441   2.442   2.515
 95 A    96 A    95 B    96 B    97 A    97 B    98 A    98 B                  
  2.516   2.568   2.599   2.619   2.624   2.667   2.671   2.684
 99 A    99 B   100 A   101 A   100 B   102 A   101 B   102 B                  
  2.691   2.727   2.733   2.751   2.836   2.841   2.874   2.912
103 A   104 A   105 A   103 B   104 B   105 B   106 A   107 A                  
  2.964   3.001   3.088   3.140   3.288   3.370   3.418   3.420
106 B   108 A   107 B   108 B   109 A   109 B   110 A   110 B                  
  3.549   3.584   3.855   3.900   4.100   4.174   4.405   4.455
111 A   111 B   112 A   112 B   113 A   113 B   114 A   115 A                  
  4.484   4.496   4.567   4.696   4.800   4.888
114 B   115 B   116 A   116 B   117 A   117 B                                  
 
 Beta MOs, Unrestricted
 -- Occupied --                  
-88.750 -88.750 -10.063 -10.063 -10.053 -10.053 -10.049 -10.049
  1 B     1 A     2 A     2 B     3 B     3 A     4 B     4 A                  
-10.031 -10.031  -7.809  -7.809  -5.774  -5.774  -5.770  -5.770
  5 B     5 A     6 B     6 A     7 B     7 A     8 B     8 A                  
 -5.765  -5.765  -0.720  -0.699  -0.600  -0.578  -0.568  -0.531
  9 A     9 B    10 A    10 B    11 A    12 A    11 B    12 B                  
 -0.440  -0.413  -0.390  -0.366  -0.362  -0.313  -0.260  -0.252
 13 A    14 A    13 B    14 B    15 A    15 B    16 A    17 A                  
 -0.243  -0.237  -0.230  -0.206  -0.200  -0.194  -0.174  -0.111
 16 B    18 A    17 B    18 B    19 A    20 A    19 B    20 B                  
 -0.100  -0.093  -0.032
 21 B    21 A    22 A                                                          
 -- Virtual --                   
  0.093   0.096   0.101   0.108   0.114   0.124   0.147   0.147
 23 A    22 B    23 B    24 A    24 B    25 A    25 B    26 A                  
  0.151   0.160   0.161   0.166   0.175   0.177   0.177   0.184
 27 A    28 A    26 B    29 A    27 B    28 B    30 A    29 B                  
  0.198   0.205   0.210   0.210   0.215   0.217   0.228   0.229
 30 B    31 A    32 A    31 B    32 B    33 A    33 B    34 A                  
  0.234   0.234   0.236   0.242   0.251   0.256   0.262   0.263
 35 A    34 B    36 A    37 A    35 B    38 A    36 B    39 A                  
  0.270   0.279   0.281   0.282   0.286   0.296   0.301   0.309
 40 A    37 B    38 B    41 A    39 B    40 B    41 B    42 A                  
  0.314   0.314   0.319   0.327   0.330   0.338   0.341   0.352
 43 A    42 B    44 A    45 A    46 A    43 B    44 B    45 B                  
  0.362   0.367   0.395   0.396   0.401   0.414   0.439   0.443
 47 A    46 B    47 B    48 A    49 A    48 B    50 A    51 A                  
  0.452   0.452   0.455   0.479   0.482   0.496   0.521   0.525
 49 B    50 B    52 A    51 B    53 A    52 B    54 A    53 B                  
  0.587   0.587   0.611   0.648   0.686   0.700   0.706   0.713
 54 B    55 A    56 A    55 B    57 A    56 B    57 B    58 A                  
  0.740   0.749   0.764   0.799   0.816   0.820   0.831   0.833
 58 B    59 A    60 A    59 B    61 A    60 B    62 A    63 A                  
  0.841   0.862   0.865   0.873   0.879   0.882   0.913   0.915
 61 B    64 A    62 B    65 A    63 B    64 B    65 B    66 A                  
  0.939   0.958   0.983   0.994   1.008   1.034   1.069   1.082
 67 A    66 B    67 B    68 A    68 B    69 A    69 B    70 A                  
  1.101   1.108   1.118   1.118   1.131   1.145   1.153   1.157
 71 A    70 B    72 A    71 B    73 A    72 B    73 B    74 A                  
  1.161   1.182   1.187   1.231   1.237   1.259   1.260   1.284
 74 B    75 A    76 A    75 B    77 A    76 B    78 A    77 B                  
  1.317   1.340   1.342   1.380   1.399   1.417   1.502   1.503
 79 A    80 A    78 B    79 B    81 A    80 B    81 B    82 A                  
  1.515   1.518   1.531   1.542   1.612   1.649   1.670   1.726
 83 A    82 B    83 B    84 A    84 B    85 A    85 B    86 A                  
  1.773   1.792   1.855   1.868   1.973   1.994   2.036   2.057
 86 B    87 B    87 A    88 B    88 A    89 A    90 A    89 B                  
  2.073   2.089   2.146   2.151   2.160   2.160   2.218   2.224
 90 B    91 A    91 B    92 A    92 B    93 A    94 A    93 B                  
  2.285   2.288   2.311   2.316   2.392   2.418   2.444   2.445
 94 B    95 A    96 A    95 B    96 B    97 A    97 B    98 A                  
  2.517   2.518   2.573   2.601   2.622   2.624   2.670   2.676
 98 B    99 A    99 B   100 A   101 A   100 B   102 A   101 B                  
  2.685   2.695   2.730   2.738   2.755   2.839   2.842   2.878
102 B   103 A   104 A   105 A   103 B   104 B   105 B   106 A                  
  2.913   2.967   3.003   3.091   3.142   3.289   3.371   3.418
107 A   106 B   108 A   107 B   108 B   109 A   109 B   110 A                  
  3.420   3.550   3.586   3.856   3.901   4.101   4.176   4.410
110 B   111 A   111 B   112 A   112 B   113 A   113 B   114 A                  
  4.456   4.488   4.498   4.573   4.701   4.802   4.891
115 A   114 B   115 B   116 A   116 B   117 A   117 B                          
 --------------------------------------------------------------
 
          Ground-State Mulliken Net Atomic Charges

     Atom                 Charge (a.u.)    Spin (a.u.)
  --------------------------------------------------------
      1 S                    -0.299721       0.107831
      2 C                    -0.132639       0.240717
      3 C                    -0.371867      -0.069018
      4 C                     0.131951       0.229231
      5 C                    -0.120477       0.011244
      6 H                     0.079710      -0.009029
      7 C                    -0.120477       0.011244
      8 S                    -0.299721       0.107831
      9 C                     0.131951       0.229231
     10 C                    -0.132639       0.240717
     11 C                    -0.371867      -0.069018
     12 H                     0.068426       0.004084
     13 H                     0.144617      -0.015060
     14 H                     0.068426       0.004084
     15 H                     0.144617      -0.015060
     16 H                     0.079710      -0.009029
  --------------------------------------------------------
  Sum of atomic charges =    -1.000000
  Sum of spin   charges =     1.000000

 -----------------------------------------------------------------
                    Cartesian Multipole Moments
 -----------------------------------------------------------------
    Charge (ESU x 10^10)
                -4.8032
    Dipole Moment (Debye)
         X       0.0000      Y       0.0000      Z      -0.4229
       Tot       0.4229
    Quadrupole Moments (Debye-Ang)
        XX     -99.3040     XY       0.8262     YY     -87.1493
        XZ      -0.0000     YZ      -0.0000     ZZ     -83.4970
    Octopole Moments (Debye-Ang^2)
       XXX       0.0000    XXY      -0.0000    XYY       0.0000
       YYY       0.0000    XXZ       8.2578    XYZ      -2.1484
       YYZ       3.5774    XZZ       0.0000    YZZ       0.0000
       ZZZ      -2.0199
    Hexadecapole Moments (Debye-Ang^3)
      XXXX   -2480.4495   XXXY       8.7576   XXYY    -489.6702
      XYYY      -5.3302   YYYY    -151.3692   XXXZ      -0.0000
      XXYZ      -0.0000   XYYZ      -0.0000   YYYZ      -0.0000
      XXZZ    -504.1388   XYZZ       3.1915   YYZZ    -155.7716
      XZZZ       0.0000   YZZZ      -0.0000   ZZZZ    -675.9055
 -----------------------------------------------------------------
Archival summary:
1\1\nid01048\OPT\ProcedureUnspecified\BasisUnspecified\286(1-,2)\TueSep623:02:532016TueSep623:02:532016\0\\#,OPT,ProcedureUnspecified,BasisUnspecified,\\-1,2\S\C,1,1.76647\H,2,1.08094,1,120.281\C,2,1.3839,1,110.52,3,178.368,0\H,4,1.08766,2,122.433,1,-179.431,0\C,4,1.41032,2,114.553,1,-0.5449,0\H,6,1.08469,4,123.838,2,-177.108,0\C,6,1.41594,4,114.019,2,1.12994,0\C,8,1.41172,6,128.682,4,-176.506,0\C,9,1.41594,8,128.682,6,-20,0\H,10,1.08469,9,122.119,8,1.76581,0\C,10,1.41032,9,114.019,8,-176.506,0\H,12,1.08766,10,123.004,9,-179.991,0\C,12,1.3839,10,114.553,9,1.12994,0\H,14,1.08094,12,129.175,10,177.637,0\S,14,1.76647,12,110.52,10,-0.5449,0\\\@

 Total job time:  88.37s(wall), 98.00s(cpu) 
 Tue Sep  6 23:02:53 2016

        *************************************************************
        *                                                           *
        *  Thank you very much for using Q-Chem.  Have a nice day.  *
        *                                                           *
        *************************************************************


0 sent ACK to 0 
now end server 0 ... 
