srun -N 1 --ntasks-per-node 16 --nodelist nid01047 /global/project/projectdirs/jcesr/qchem/qc44/cnl_qc441/dist/exe/qcprog.cori.exe .pt_charged_dft_-20.0.in.32571.qcin.1 /dev/shm/eg_qchem/qchem32571/
Process 0 of 16 is on nid01047 - thread support 0
Process 1 of 16 is on nid01047 - thread support 0
Process 2 of 16 is on nid01047 - thread support 0
Process 3 of 16 is on nid01047 - thread support 0
Process 4 of 16 is on nid01047 - thread support 0
Process 5 of 16 is on nid01047 - thread support 0
Process 6 of 16 is on nid01047 - thread support 0
initial socket setup ...start
Process 15 of 16 is on nid01047 - thread support 0
initial socket setup ...done 
now start server 0 ... 
nid01047 10.128.4
Q-Chem Developer Version! Running on 10.128.4.*
                  Welcome to Q-Chem
     A Quantum Leap Into The Future Of Chemistry


 Q-Chem 4.4, Q-Chem, Inc., Pleasanton, CA (2016)

 Y. Shao,  Z. Gan,  E. Epifanovsky,  A. T. B. Gilbert,  M. Wormit,  
 J. Kussmann,  A. W. Lange,  A. Behn,  J. Deng,  X. Feng,  D. Ghosh,  
 M. Goldey,  P. R. Horn,  L. D. Jacobson,  I. Kaliman,  F.Rob,  
 R. Z. Khaliullin,  T. Kus,  A. Landau,  J. Liu,  E. I. Proynov,  Y. M. Rhee,  
 R. M. Richard,  M. A. Rohrdanz,  R. P. Steele,  E. J. Sundstrom,  
 H. L. Woodcock III,  P. M. Zimmerman,  D. Zuev,  B. Albrecht,  E. Alguire,  
 B. Austin,  S. A. Baeppler,  G. J. O. Beran,  Y. A. Bernard,  E. Berquist,  
 K. Brandhorst,  K. B. Bravaya,  S. T. Brown,  D. Casanova,  C.-M. Chang,  
 Y. Chen,  S. H. Chien,  K. D. Closser,  M. P. Coons,  D. L. Crittenden,  
 S. Dasgupta,  M. Diedenhofen,  R. A. DiStasio Jr.,  H. Do,  A. D. Dutoi,  
 R. G. Edgar,  P.-T. Fang,  S. Fatehi,  Q. Feng,  L. Fusti-Molnar,  
 A. Ghysels,  A. Golubeva-Zadorozhnaya,  J. Gomes,  A. Gunina,  
 M. W. D. Hanson-Heine,  P. H. P. Harbach,  A. W. Hauser,  E. G. Hohenstein,  
 Z. C. Holden,  K. Hui,  T.-C. Jagau,  H. Ji,  B. Kaduk,  K. Khistyaev,  
 Jaehoon Kim,  Jihan Kim,  R. A. King,  P. Klunzinger,  D. Kosenkov,  
 T. Kowalczyk,  C. M. Krauter,  A. Kunitsa,  K. U. Lao,  A. Laurent,  
 K. V. Lawler,  D. Lefrancois,  S. Lehtola,  S. V. Levchenko,  C. Y. Lin,  
 Y.-S. Lin,  F. Liu,  E. Livshits,  R. C. Lochan,  A. Luenser,  P. Manohar,  
 S. F. Manzer,  S.-P. Mao,  Y. Mao,  N. Mardirossian,  A. V. Marenich,  
 L. A. Martinez-Martinez,  S. A. Maurer,  N. J. Mayhall,  J.-M. Mewes,  
 A. F. Morrison,  K. Nanda,  C. M. Oana,  R. Olivares-Amaya,  D. P. O'Neill,  
 J. A. Parkhill,  T. M. Perrine,  R. Peverati,  P. A. Pieniazek,  F. Plasser,  
 A. Prociuk,  D. R. Rehn,  E. Rosta,  N. J. Russ,  N. Sergueev,  
 S. M. Sharada,  S. Sharma,  D. W. Small,  A. Sodt,  T. Stauch,  T. Stein,  
 D. Stuck,  Y.-C. Su,  A. J. W. Thom,  T. Tsuchimochi,  L. Vogt,  O. Vydrov,  
 T. Wang,  M. A. Watson,  J. Wenzel,  A. White,  C. F. Williams,  
 V. Vanovschi,  S. Yeganeh,  S. R. Yost,  Z.-Q. You,  I. Y. Zhang,  X. Zhang,  
 Y. Zhao,  B. R. Brooks,  G. K. L. Chan,  D. M. Chipman,  C. J. Cramer,  
 W. A. Goddard III,  M. S. Gordon,  W. J. Hehre,  A. Klamt,  
 H. F. Schaefer III,  M. W. Schmidt,  C. D. Sherrill,  D. G. Truhlar,  
 A. Warshel,  X. Xu,  A. Aspuru-Guzik,  R. Baer,  A. T. Bell,  N. A. Besley,  
 J.-D. Chai,  A. Dreuw,  B. D. Dunietz,  T. R. Furlani,  S. R. Gwaltney,  
 C.-P. Hsu,  Y. Jung,  J. Kong,  D. S. Lambrecht,  W. Liang,  C. Ochsenfeld,  
 V. A. Rassolov,  L. V. Slipchenko,  J. E. Subotnik,  T. Van Voorhis,  
 J. M. Herbert,  A. I. Krylov,  P. M. W. Gill,  M. Head-Gordon

 Contributors to earlier versions of Q-Chem not listed above: 
 R. D. Adamson,  J. Baker,  E. F. C. Byrd,  A. K. Chakraborty,  C.-L. Cheng,  
 H. Dachsel,  R. J. Doerksen,  G. Hawkins,  A. Heyden,  S. Hirata,  
 G. Kedziora,  F. J. Keil,  C. Kelley,  P. P. Korambath,  W. Kurlancheek,  
 A. M. Lee,  M. S. Lee,  D. Liotard,  I. Lotan,  P. E. Maslen,  N. Nair,  
 D. Neuhauser,  R. Olson,  B. Peters,  J. Ritchie,  N. E. Schultz,  
 N. Shenvi,  A. C. Simmonett,  K. S. Thanthiriwatte,  Q. Wu,  W. Zhang

 Please cite Q-Chem as follows:
 Y. Shao et al., Mol. Phys. 113, 184-215 (2015)
 DOI: 10.1080/00268976.2014.952696

 Q-Chem 4.4.1 for Intel X86 EM64T Linux

 Parts of Q-Chem use Armadillo 5.200.1 (Boston Tea Smuggler).
 http://arma.sourceforge.net/

 Q-Chem begins on Wed Sep  7 00:21:01 2016  

Host: nid01047
0

     Scratch files written to /dev/shm/eg_qchem/qchem32571.0//
 Parallel job on  16  processors

Checking the input file for inconsistencies... 	...done.

--------------------------------------------------------------
User input:
--------------------------------------------------------------
$comment
<SCF Fix Strategy>{
    "current_method_id": 1, 
    "methods": [
        "increase_iter", 
        "rca_diis", 
        "gwh", 
        "gdm", 
        "rca", 
        "core+rca", 
        "fon"
    ], 
    "version": 2.0
}</SCF Fix Strategy>
$end


$molecule
 -1  2
 S           1.83794975       -1.27576249       -0.14871336
 C           3.23937819       -0.19806434       -0.14823333
 C           2.83626844        1.12431397       -0.14890172
 C           1.43724334        1.31134696       -0.14931220
 C           0.69606563        0.10654716       -0.14908151
 H           0.95807640        2.28459073       -0.14860036
 C          -0.69610330       -0.10652413       -0.14907621
 S          -1.38630672       -1.67542733       -0.67523343
 C          -1.75386830        0.75720915        0.21968527
 C          -3.03817325       -1.11680113       -0.38418548
 C          -3.03654216        0.18402085        0.08383361
 H          -3.95260235        0.71773938        0.32620047
 H           4.24016475       -0.60708034       -0.14954918
 H           3.54430111        1.94981573       -0.14910914
 H          -3.87580444       -1.77381744       -0.57279391
 H          -1.57834597        1.76793289        0.57243777
$end


$rem
         jobtype = opt
        exchange = b3lyp
           basis = 6-31++g**
  max_scf_cycles = 200
      mem_static = 100
       mem_total = 1500
   scf_algorithm = rca_diis
       scf_guess = sad
$end


$opt
CONSTRAINT
tors 4 5 7 9 -20.0
ENDCONSTRAINT
$end

--------------------------------------------------------------
 Atom   8: ( -1.6295881248, -0.2294316453,  1.1513568812)
         ->( -1.6295880894, -0.2294316867,  1.1513568721)
 Atom  10: ( -3.1740736831, -0.0459018836,  0.3109305844)
         ->( -3.1740736756, -0.0459017150,  0.3109306535)
 Atom  11: ( -2.9701767463,  0.1873641868, -1.0363612668)
         ->( -2.9701767759,  0.1873640611, -1.0363612392)
 Atom   9: ( -1.6143069750,  0.2249850098, -1.4268155779)
         ->( -1.6143070170,  0.2249850275, -1.4268155873)
 Atom   7: ( -0.7039989433,  0.0163983422, -0.3644042202)
         ->( -0.7039989519,  0.0163984765, -0.3644042327)
 Atom  16: ( -1.2838221300,  0.3960657219, -2.4457935218)
         ->( -1.2838221883,  0.3960658343, -2.4457935235)
 Atom  14: (  3.7918570162, -0.3296874093, -1.7344651769)
         ->(  3.7918569320, -0.3296877474, -1.7344652076)
 Atom  15: ( -4.1034244835, -0.1193708129,  0.8584513494)
         ->( -4.1034244707, -0.1193710951,  0.8584513456)
 ----------------------------------------------------------------
             Standard Nuclear Orientation (Angstroms)
    I     Atom           X                Y                Z
 ----------------------------------------------------------------
    1      S       1.6295880894     0.2294316867     1.1513568721
    2      C       3.1740736756     0.0459017150     0.3109306535
    3      C       2.9701767759    -0.1873640611    -1.0363612392
    4      C       1.6143070170    -0.2249850275    -1.4268155873
    5      C       0.7039989519    -0.0163984765    -0.3644042327
    6      H       1.2838221883    -0.3960658343    -2.4457935235
    7      C      -0.7039989519     0.0163984765    -0.3644042327
    8      S      -1.6295880894    -0.2294316867     1.1513568721
    9      C      -1.6143070170     0.2249850275    -1.4268155873
   10      C      -3.1740736756    -0.0459017150     0.3109306535
   11      C      -2.9701767759     0.1873640611    -1.0363612392
   12      H      -3.7918569320     0.3296877474    -1.7344652076
   13      H       4.1034244707     0.1193710951     0.8584513456
   14      H       3.7918569320    -0.3296877474    -1.7344652076
   15      H      -4.1034244707    -0.1193710951     0.8584513456
   16      H      -1.2838221883     0.3960658343    -2.4457935235
 ----------------------------------------------------------------
 Molecular Point Group                 C2    NOp =  2
 Largest Abelian Subgroup              C2    NOp =  2
 Nuclear Repulsion Energy =   627.4580071226 hartrees
 There are       44 alpha and       43 beta electrons
 Requested basis set is 6-31++G(d,p)
 There are 76 shells and 234 basis functions

 Total QAlloc Memory Limit   1500 MB
 Mega-Array Size        98 MB
 MEM_STATIC part       100 MB
 A cutoff of  1.0D-12 yielded   2525 shell pairs
 There are     24863 function pairs
 
 -------------------------------------------------------
 OpenMP Integral Computing Module                       
 Release: version 1.0, May 2013, Q-Chem Inc. Pittsburgh 
 -------------------------------------------------------
 Integral Job Info:
 Integral job number is                      11
 Integral operator is                         1
 short-range coefficients                     0
 long-range coefficients              100000000
 Omega coefficients                           0
 if combine SR and LR in K                    0
 Integral screening is                        0
 Integral computing path is                   2
 max size of driver memory is            800000
 size of driver memory is                593474
 size of scratch memory is             15166112
 max col of scratch BK array               1296
 max len of scratch array in speh3          155
 max len of scratch index in speh4           18
 max int batch size is                      520
 min int batch size is                       52
 fixed nKL is                                52
 max L of basis functions is                  2
 order of int derivative is                   0
 number of shells is                         76
 number of basis is                         234
 number of cartesian basis is               234
 number of contracted shell pairs          2525
 number of primitive shell pairs           8222
 maxK2 (contraction) of shell pair           36
 max number of K2 of shell pair               1
 max number of CS2 of shell pair            258
 max number of PS2 of shell pair           1524
 mem total for path MDJ                   51992
 -------------------------------------------------------
 Smallest overlap matrix eigenvalue = 7.67E-07
 Linear dependence detected in AO basis
 Number of orthogonalized atomic orbitals = 233
 Maximum deviation from orthogonality = 9.440E-11

 Scale SEOQF with 1.000000e-01/1.000000e-01/1.000000e-01

 Standard Electronic Orientation quadrupole field applied
 Nucleus-field energy     =     0.0000000041 hartrees
 Guess from superposition of atomic densities
 Warning:  Energy on first SCF cycle will be non-variational
 An unrestricted hybrid HF-DFT SCF calculation will be
 performed using Relaxed Constraint Minimization + Pulay DIIS
 Exchange:     0.2000 Hartree-Fock + 0.0800 Slater + 0.7200 B88
 Correlation:  0.1900 VWN1RPA + 0.8100 LYP
 Using SG-1 standard quadrature grid
 SCF converges when DIIS error is below 1.0E-08
 Inaccurate integrated density:
   Number of electrons =    87
   Numerical integral  =    85.999872583102
   Relative error      =    -1.1495717436 %
 Inaccurate integrated density:
   Number of electrons =    87
   Numerical integral  =    85.999872583102
   Relative error      =    -1.1495717436 %
 ---------------------------------------
  Cycle       Energy         DIIS Error
 ---------------------------------------
    1   -1106.9919596137      4.29E-02
    2   -1108.4873702248      5.20E-02
 Inaccurate integrated density:
   Number of electrons =    87
   Numerical integral  =    87.027090321916
   Relative error      =     0.0311383011 %
 Inaccurate integrated density:
   Number of electrons =    87
   Numerical integral  =    87.027090321921
   Relative error      =     0.0311383011 %
    3   -1119.5366404792      5.61E-02
 Inaccurate integrated density:
   Number of electrons =    87
   Numerical integral  =    87.019903441584
   Relative error      =     0.0228775191 %
 Inaccurate integrated density:
   Number of electrons =    87
   Numerical integral  =    87.019903441625
   Relative error      =     0.0228775191 %
    4   -1261.0749138773      1.88E-01
 Inaccurate integrated density:
   Number of electrons =    87
   Numerical integral  =    87.018641768344
   Relative error      =     0.0214273199 %
 Inaccurate integrated density:
   Number of electrons =    87
   Numerical integral  =    87.019829665657
   Relative error      =     0.0227927191 %
Recomputing EXC -1253.877138 -1263.286945 -1261.074914 
 Inaccurate integrated density:
   Number of electrons =    87
   Numerical integral  =    87.019898245777
   Relative error      =     0.0228715469 %
Recomputing EXC -1260.592400 -1261.229471 -1261.074914 
 Inaccurate integrated density:
   Number of electrons =    87
   Numerical integral  =    87.019903071383
   Relative error      =     0.0228770935 %
Recomputing EXC -1261.040652 -1261.085921 -1261.074914 
    5   -1261.0406517676      1.88E-01
 Inaccurate integrated density:
   Number of electrons =    87
   Numerical integral  =    87.018642506610
   Relative error      =     0.0214281685 %
 Inaccurate integrated density:
   Number of electrons =    87
   Numerical integral  =    87.019829414380
   Relative error      =     0.0227924303 %
Recomputing EXC -1254.110938 -1263.248596 -1261.040652 
 Inaccurate integrated density:
   Number of electrons =    87
   Numerical integral  =    87.019897715909
   Relative error      =     0.0228709378 %
Recomputing EXC -1260.939503 -1261.199793 -1261.040652 
 Inaccurate integrated density:
   Number of electrons =    87
   Numerical integral  =    87.019902254066
   Relative error      =     0.0228761541 %
    6   -1261.3710041518      1.87E-01
 Inaccurate integrated density:
   Number of electrons =    87
   Numerical integral  =    87.018249927132
   Relative error      =     0.0209769277 %
 Inaccurate integrated density:
   Number of electrons =    87
   Numerical integral  =    87.019835383921
   Relative error      =     0.0227992919 %
Recomputing EXC -1253.150789 -1262.817560 -1261.371004 
 Inaccurate integrated density:
   Number of electrons =    87
   Numerical integral  =    87.019899150366
   Relative error      =     0.0228725866 %
Recomputing EXC -1260.997604 -1261.437882 -1261.371004 
 Inaccurate integrated density:
   Number of electrons =    87
   Numerical integral  =    87.019902109176
   Relative error      =     0.0228759876 %
Recomputing EXC -1261.353589 -1261.374126 -1261.371004 
    7   -1261.3535890939      1.87E-01
 Inaccurate integrated density:
   Number of electrons =    87
   Numerical integral  =    87.018250965534
   Relative error      =     0.0209781213 %
 Inaccurate integrated density:
   Number of electrons =    87
   Numerical integral  =    87.019835275784
   Relative error      =     0.0227991676 %
Recomputing EXC -1253.443182 -1262.799863 -1261.353589 
 Inaccurate integrated density:
   Number of electrons =    87
   Numerical integral  =    87.019898896372
   Relative error      =     0.0228722947 %
    8   -1261.3675393196      1.85E-01
 Inaccurate integrated density:
   Number of electrons =    87
   Numerical integral  =    87.009681991893
   Relative error      =     0.0111287263 %
 Inaccurate integrated density:
   Number of electrons =    87
   Numerical integral  =    87.019382183720
   Relative error      =     0.0222783721 %
Recomputing EXC -1254.464234 -1263.053124 -1261.367539 
 Inaccurate integrated density:
   Number of electrons =    87
   Numerical integral  =    87.019868043994
   Relative error      =     0.0228368322 %
Recomputing EXC -1260.969734 -1261.467579 -1261.367539 
 Inaccurate integrated density:
   Number of electrons =    87
   Numerical integral  =    87.019897037524
   Relative error      =     0.0228701581 %
Recomputing EXC -1261.343624 -1261.373564 -1261.367539 
    9   -1261.3436236961      1.85E-01
 Inaccurate integrated density:
   Number of electrons =    87
   Numerical integral  =    87.009681681187
   Relative error      =     0.0111283692 %
 Inaccurate integrated density:
   Number of electrons =    87
   Numerical integral  =    87.019380672388
   Relative error      =     0.0222766349 %
Recomputing EXC -1254.726293 -1263.027129 -1261.343624 
 Inaccurate integrated density:
   Number of electrons =    87
   Numerical integral  =    87.019865065132
   Relative error      =     0.0228334082 %
Recomputing EXC -1261.322766 -1261.447157 -1261.343624 
 Inaccurate integrated density:
   Number of electrons =    87
   Numerical integral  =    87.019890929821
   Relative error      =     0.0228631377 %
   10   -1261.6625836429      1.84E-01
 Inaccurate integrated density:
   Number of electrons =    87
   Numerical integral  =    87.019041017053
   Relative error      =     0.0218862265 %
Recomputing EXC -1255.085624 -1263.202104 -1261.662584 
 Inaccurate integrated density:
   Number of electrons =    87
   Numerical integral  =    87.019841748697
   Relative error      =     0.0228066077 %
Recomputing EXC -1261.294542 -1261.751160 -1261.662584 
 Inaccurate integrated density:
   Number of electrons =    87
   Numerical integral  =    87.019888059424
   Relative error      =     0.0228598384 %
Recomputing EXC -1261.641145 -1261.667752 -1261.662584 
   11   -1261.6411453927      1.84E-01
 Inaccurate integrated density:
   Number of electrons =    87
   Numerical integral  =    87.019038834070
   Relative error      =     0.0218837173 %
Recomputing EXC -1255.354683 -1263.178735 -1261.641145 
 Inaccurate integrated density:
   Number of electrons =    87
   Numerical integral  =    87.019836981370
   Relative error      =     0.0228011280 %
Recomputing EXC -1261.648706 -1261.733024 -1261.641145 
 Inaccurate integrated density:
   Number of electrons =    87
   Numerical integral  =    87.019876296099
   Relative error      =     0.0228463174 %
   12   -1261.9484594058      1.84E-01
 Inaccurate integrated density:
   Number of electrons =    87
   Numerical integral  =    87.019020220252
   Relative error      =     0.0218623221 %
Recomputing EXC -1255.575494 -1263.294862 -1261.948459 
 Inaccurate integrated density:
   Number of electrons =    87
   Numerical integral  =    87.019830451964
   Relative error      =     0.0227936229 %
Recomputing EXC -1261.616963 -1262.020196 -1261.948459 
 Inaccurate integrated density:
   Number of electrons =    87
   Numerical integral  =    87.019873822325
   Relative error      =     0.0228434739 %
Recomputing EXC -1261.930600 -1261.952329 -1261.948459 
   13   -1261.9305997976      1.84E-01
 Inaccurate integrated density:
   Number of electrons =    87
   Numerical integral  =    87.019018243520
   Relative error      =     0.0218600500 %
Recomputing EXC -1255.855414 -1263.275685 -1261.930600 
 Inaccurate integrated density:
   Number of electrons =    87
   Numerical integral  =    87.019826065189
   Relative error      =     0.0227885807 %
   14   -1261.9739632033      1.82E-01
 Inaccurate integrated density:
   Number of electrons =    87
   Numerical integral  =    87.019011047681
   Relative error      =     0.0218517789 %
Recomputing EXC -1255.883357 -1263.141477 -1261.973963 
 Inaccurate integrated density:
   Number of electrons =    87
   Numerical integral  =    87.019785580661
   Relative error      =     0.0227420467 %
Recomputing EXC -1261.679024 -1262.031695 -1261.973963 
 Inaccurate integrated density:
   Number of electrons =    87
   Numerical integral  =    87.019824040473
   Relative error      =     0.0227862534 %
Recomputing EXC -1261.959232 -1261.976850 -1261.973963 
   15   -1261.9592315891      1.82E-01
 Inaccurate integrated density:
   Number of electrons =    87
   Numerical integral  =    87.019009408918
   Relative error      =     0.0218498953 %
Recomputing EXC -1256.168412 -1263.125803 -1261.959232 
 Inaccurate integrated density:
   Number of electrons =    87
   Numerical integral  =    87.019781746864
   Relative error      =     0.0227376401 %
   16   -1262.0335183042      1.81E-01
 Inaccurate integrated density:
   Number of electrons =    87
   Numerical integral  =    87.019012012704
   Relative error      =     0.0218528882 %
Recomputing EXC -1256.229315 -1263.044400 -1262.033518 
 Inaccurate integrated density:
   Number of electrons =    87
   Numerical integral  =    87.019746298533
   Relative error      =     0.0226968949 %
Recomputing EXC -1261.772100 -1262.079885 -1262.033518 
 Inaccurate integrated density:
   Number of electrons =    87
   Numerical integral  =    87.019780104463
   Relative error      =     0.0227357523 %
Recomputing EXC -1262.021419 -1262.035666 -1262.033518 
   17   -1262.0214187721      1.81E-01
 Inaccurate integrated density:
   Number of electrons =    87
   Numerical integral  =    87.019010673682
   Relative error      =     0.0218513491 %
Recomputing EXC -1256.519349 -1263.031624 -1262.021419 
 Inaccurate integrated density:
   Number of electrons =    87
   Numerical integral  =    87.019742956694
   Relative error      =     0.0226930537 %
   18   -1262.1246292856      1.80E-01
 Inaccurate integrated density:
   Number of electrons =    87
   Numerical integral  =    87.019020319227
   Relative error      =     0.0218624359 %
Recomputing EXC -1256.602772 -1262.995366 -1262.124629 
 Inaccurate integrated density:
   Number of electrons =    87
   Numerical integral  =    87.019712234741
   Relative error      =     0.0226577411 %
Recomputing EXC -1261.894367 -1262.161516 -1262.124629 
 Inaccurate integrated density:
   Number of electrons =    87
   Numerical integral  =    87.019741643642
   Relative error      =     0.0226915444 %
Recomputing EXC -1262.114796 -1262.126206 -1262.124629 
   19   -1262.1147956577      1.80E-01
 Inaccurate integrated density:
   Number of electrons =    87
   Numerical integral  =    87.019019243796
   Relative error      =     0.0218611998 %
Recomputing EXC -1256.897965 -1262.985049 -1262.114796 
 Inaccurate integrated density:
   Number of electrons =    87
   Numerical integral  =    87.019709337592
   Relative error      =     0.0226544110 %
   20   -1262.2454821048      1.79E-01
 Inaccurate integrated density:
   Number of electrons =    87
   Numerical integral  =    87.019028335270
   Relative error      =     0.0218716497 %
Recomputing EXC -1257.017427 -1262.996979 -1262.245482 
 Inaccurate integrated density:
   Number of electrons =    87
   Numerical integral  =    87.019682499636
   Relative error      =     0.0226235628 %
Recomputing EXC -1262.042910 -1262.275005 -1262.245482 
 Inaccurate integrated density:
   Number of electrons =    87
   Numerical integral  =    87.019708274886
   Relative error      =     0.0226531895 %
Recomputing EXC -1262.237466 -1262.246651 -1262.245482 
   21   -1262.2374661372      1.79E-01
 Inaccurate integrated density:
   Number of electrons =    87
   Numerical integral  =    87.019027461938
   Relative error      =     0.0218706459 %
Recomputing EXC -1257.317275 -1262.988612 -1262.237466 
 Inaccurate integrated density:
   Number of electrons =    87
   Numerical integral  =    87.019679944323
   Relative error      =     0.0226206257 %
   22   -1262.3928446248      1.78E-01
 Inaccurate integrated density:
   Number of electrons =    87
   Numerical integral  =    87.018975967439
   Relative error      =     0.0218114568 %
Recomputing EXC -1257.613078 -1263.100673 -1262.392845 
 Inaccurate integrated density:
   Number of electrons =    87
   Numerical integral  =    87.019651507575
   Relative error      =     0.0225879397 %
Recomputing EXC -1262.203229 -1262.421341 -1262.392845 
 Inaccurate integrated density:
   Number of electrons =    87
   Numerical integral  =    87.019678789800
   Relative error      =     0.0226192986 %
Recomputing EXC -1262.385152 -1262.394001 -1262.392845 
   23   -1262.3851520403      1.78E-01
 Inaccurate integrated density:
   Number of electrons =    87
   Numerical integral  =    87.018974880681
   Relative error      =     0.0218102077 %
Recomputing EXC -1257.911430 -1263.092764 -1262.385152 
 Inaccurate integrated density:
   Number of electrons =    87
   Numerical integral  =    87.019648627531
   Relative error      =     0.0225846293 %
   24   -1262.5497798600      1.77E-01
 Inaccurate integrated density:
   Number of electrons =    87
   Numerical integral  =    87.019171137361
   Relative error      =     0.0220357901 %
Recomputing EXC -1257.599287 -1262.994044 -1262.549780 
 Inaccurate integrated density:
   Number of electrons =    87
   Numerical integral  =    87.019636053875
   Relative error      =     0.0225701769 %
Recomputing EXC -1262.420459 -1262.561460 -1262.549780 
 Inaccurate integrated density:
   Number of electrons =    87
   Numerical integral  =    87.019648295633
   Relative error      =     0.0225842479 %
Recomputing EXC -1262.546367 -1262.550088 -1262.549780 
   25   -1262.5463670588      1.77E-01
 Inaccurate integrated density:
   Number of electrons =    87
   Numerical integral  =    87.019170797903
   Relative error      =     0.0220353999 %
Recomputing EXC -1257.920742 -1262.990609 -1262.546367 
 Inaccurate integrated density:
   Number of electrons =    87
   Numerical integral  =    87.019634904352
   Relative error      =     0.0225688556 %
   26   -1262.7725903646      1.77E-01
 Inaccurate integrated density:
   Number of electrons =    87
   Numerical integral  =    87.019119995660
   Relative error      =     0.0219770065 %
Recomputing EXC -1258.226205 -1263.210499 -1262.772590 
 Inaccurate integrated density:
   Number of electrons =    87
   Numerical integral  =    87.019620478604
   Relative error      =     0.0225522743 %
Recomputing EXC -1262.646296 -1262.784838 -1262.772590 
 Inaccurate integrated density:
   Number of electrons =    87
   Numerical integral  =    87.019634499183
   Relative error      =     0.0225683899 %
Recomputing EXC -1262.769044 -1262.772934 -1262.772590 
   27   -1262.7690440136      1.77E-01
 Inaccurate integrated density:
   Number of electrons =    87
   Numerical integral  =    87.019119620100
   Relative error      =     0.0219765748 %
Recomputing EXC -1258.545904 -1263.206895 -1262.769044 
 Inaccurate integrated density:
   Number of electrons =    87
   Numerical integral  =    87.019619064257
   Relative error      =     0.0225506486 %
   28   -1262.9963402973      1.76E-01
 Inaccurate integrated density:
   Number of electrons =    87
   Numerical integral  =    87.019183510628
   Relative error      =     0.0220500122 %
Recomputing EXC -1258.547485 -1263.332400 -1262.996340 
 Inaccurate integrated density:
   Number of electrons =    87
   Numerical integral  =    87.019609230617
   Relative error      =     0.0225393455 %
Recomputing EXC -1262.896406 -1263.003920 -1262.996340 
 Inaccurate integrated density:
   Number of electrons =    87
   Numerical integral  =    87.019618841879
   Relative error      =     0.0225503930 %
Recomputing EXC -1262.994081 -1262.996512 -1262.996340 
   29   -1262.9940808306      1.76E-01
 Inaccurate integrated density:
   Number of electrons =    87
   Numerical integral  =    87.019183312391
   Relative error      =     0.0220497844 %
Recomputing EXC -1258.877927 -1263.330111 -1262.994081 
 Inaccurate integrated density:
   Number of electrons =    87
   Numerical integral  =    87.019608274615
   Relative error      =     0.0225382467 %
   30   -1263.2481258161      1.76E-01
 Inaccurate integrated density:
   Number of electrons =    87
   Numerical integral  =    87.019161282725
   Relative error      =     0.0220244629 %
Recomputing EXC -1259.018869 -1263.563513 -1263.248126 
 Inaccurate integrated density:
   Number of electrons =    87
   Numerical integral  =    87.019598302449
   Relative error      =     0.0225267844 %
Recomputing EXC -1263.154159 -1263.255156 -1263.248126 
 Inaccurate integrated density:
   Number of electrons =    87
   Numerical integral  =    87.019608051861
   Relative error      =     0.0225379906 %
Recomputing EXC -1263.246027 -1263.248283 -1263.248126 
   31   -1263.2460270488      1.76E-01
 Inaccurate integrated density:
   Number of electrons =    87
   Numerical integral  =    87.019161030492
   Relative error      =     0.0220241730 %
Recomputing EXC -1259.352239 -1263.561431 -1263.246027 
 Inaccurate integrated density:
   Number of electrons =    87
   Numerical integral  =    87.019597289661
   Relative error      =     0.0225256203 %
   32   -1263.5052879071      1.76E-01
 Inaccurate integrated density:
   Number of electrons =    87
   Numerical integral  =    87.019266693162
   Relative error      =     0.0221456243 %
Recomputing EXC -1259.293606 -1263.703703 -1263.505288 
 Inaccurate integrated density:
   Number of electrons =    87
   Numerical integral  =    87.019592448608
   Relative error      =     0.0225200559 %
Recomputing EXC -1263.443740 -1263.508192 -1263.505288 
 Inaccurate integrated density:
   Number of electrons =    87
   Numerical integral  =    87.019597218742
   Relative error      =     0.0225255388 %
Recomputing EXC -1263.504386 -1263.505330 -1263.505288 
   33   -1263.5043860815      1.76E-01
 Inaccurate integrated density:
   Number of electrons =    87
   Numerical integral  =    87.019266628835
   Relative error      =     0.0221455504 %
Recomputing EXC -1259.638070 -1263.702797 -1263.504386 
 Inaccurate integrated density:
   Number of electrons =    87
   Numerical integral  =    87.019591970448
   Relative error      =     0.0225195063 %
   34   -1263.7979785859      1.75E-01
 Inaccurate integrated density:
   Number of electrons =    87
   Numerical integral  =    87.019167018139
   Relative error      =     0.0220310553 %
Recomputing EXC -1259.864588 -1264.029654 -1263.797979 
 Inaccurate integrated density:
   Number of electrons =    87
   Numerical integral  =    87.019584319745
   Relative error      =     0.0225107124 %
Recomputing EXC -1263.727346 -1263.802147 -1263.797979 
 Inaccurate integrated density:
   Number of electrons =    87
   Numerical integral  =    87.019591832566
   Relative error      =     0.0225193478 %
Recomputing EXC -1263.796706 -1263.798054 -1263.797979 
   35   -1263.7967059751      1.75E-01
 Inaccurate integrated density:
   Number of electrons =    87
   Numerical integral  =    87.019166898305
   Relative error      =     0.0220309176 %
Recomputing EXC -1260.206913 -1264.028370 -1263.796706 
 Inaccurate integrated density:
   Number of electrons =    87
   Numerical integral  =    87.019583505527
   Relative error      =     0.0225097765 %
   36   -1264.0797713826      1.75E-01
 Inaccurate integrated density:
   Number of electrons =    87
   Numerical integral  =    87.019138974277
   Relative error      =     0.0219988210 %
Recomputing EXC -1260.305455 -1264.315397 -1264.079771 
 Inaccurate integrated density:
   Number of electrons =    87
   Numerical integral  =    87.019575066364
   Relative error      =     0.0225000763 %
Recomputing EXC -1264.008282 -1264.084242 -1264.079771 
 Inaccurate integrated density:
   Number of electrons =    87
   Numerical integral  =    87.019583345195
   Relative error      =     0.0225095922 %
Recomputing EXC -1264.078413 -1264.079856 -1264.079771 
   37   -1264.0784133134      1.75E-01
 Inaccurate integrated density:
   Number of electrons =    87
   Numerical integral  =    87.019138800553
   Relative error      =     0.0219986213 %
Recomputing EXC -1260.648675 -1264.314049 -1264.078413 
 Inaccurate integrated density:
   Number of electrons =    87
   Numerical integral  =    87.019574129317
   Relative error      =     0.0224989992 %
   38   -1264.3599162674      1.75E-01
 Inaccurate integrated density:
   Number of electrons =    87
   Numerical integral  =    87.019116124711
   Relative error      =     0.0219725571 %
Recomputing EXC -1260.710110 -1264.594409 -1264.359916 
 Inaccurate integrated density:
   Number of electrons =    87
   Numerical integral  =    87.019565204316
   Relative error      =     0.0224887406 %
Recomputing EXC -1264.288952 -1264.364484 -1264.359916 
 Inaccurate integrated density:
   Number of electrons =    87
   Numerical integral  =    87.019573955279
   Relative error      =     0.0224987992 %
Recomputing EXC -1264.358533 -1264.360005 -1264.359916 
   39   -1264.3585325176      1.75E-01
 Inaccurate integrated density:
   Number of electrons =    87
   Numerical integral  =    87.019115960693
   Relative error      =     0.0219723686 %
Recomputing EXC -1261.055681 -1264.593017 -1264.358533 
 Inaccurate integrated density:
   Number of electrons =    87
   Numerical integral  =    87.019564180673
   Relative error      =     0.0224875640 %
   40   -1264.6400641983      1.75E-01
 Inaccurate integrated density:
   Number of electrons =    87
   Numerical integral  =    87.019127065084
   Relative error      =     0.0219851323 %
Recomputing EXC -1261.039007 -1264.862643 -1264.640064 
 Inaccurate integrated density:
   Number of electrons =    87
   Numerical integral  =    87.019555959073
   Relative error      =     0.0224781139 %
Recomputing EXC -1264.572456 -1264.644249 -1264.640064 
 Inaccurate integrated density:
   Number of electrons =    87
   Numerical integral  =    87.019564025937
   Relative error      =     0.0224873861 %
Recomputing EXC -1264.638792 -1264.640143 -1264.640064 
   41   -1264.6387919069      1.75E-01
 Inaccurate integrated density:
   Number of electrons =    87
   Numerical integral  =    87.019126918921
   Relative error      =     0.0219849643 %
Recomputing EXC -1261.387350 -1264.861364 -1264.638792 
 Inaccurate integrated density:
   Number of electrons =    87
   Numerical integral  =    87.019555005015
   Relative error      =     0.0224770173 %
   42   -1264.9236288889      1.75E-01
 Inaccurate integrated density:
   Number of electrons =    87
   Numerical integral  =    87.019173653287
   Relative error      =     0.0220386819 %
Recomputing EXC -1261.302388 -1265.120109 -1264.923629 
 Inaccurate integrated density:
   Number of electrons =    87
   Numerical integral  =    87.019548641298
   Relative error      =     0.0224697026 %
Recomputing EXC -1264.863286 -1264.926907 -1264.923629 
 Inaccurate integrated density:
   Number of electrons =    87
   Numerical integral  =    87.019554898812
   Relative error      =     0.0224768952 %
Recomputing EXC -1264.922622 -1264.923684 -1264.923629 
   43   -1264.9226215120      1.75E-01
 Inaccurate integrated density:
   Number of electrons =    87
   Numerical integral  =    87.019173550768
   Relative error      =     0.0220385641 %
Recomputing EXC -1261.653920 -1265.119099 -1264.922622 
 Inaccurate integrated density:
   Number of electrons =    87
   Numerical integral  =    87.019547909891
   Relative error      =     0.0224688619 %
   44   -1265.2152404636      1.75E-01
 Inaccurate integrated density:
   Number of electrons =    87
   Numerical integral  =    87.019125141467
   Relative error      =     0.0219829212 %
Recomputing EXC -1261.623468 -1265.436611 -1265.215240 
 Inaccurate integrated density:
   Number of electrons =    87
   Numerical integral  =    87.019539980375
   Relative error      =     0.0224597476 %
Recomputing EXC -1265.147965 -1265.219391 -1265.215240 
 Inaccurate integrated density:
   Number of electrons =    87
   Numerical integral  =    87.019547761091
   Relative error      =     0.0224686909 %
Recomputing EXC -1265.213978 -1265.215318 -1265.215240 
   45   -1265.2139781238      1.75E-01
 Inaccurate integrated density:
   Number of electrons =    87
   Numerical integral  =    87.019125039886
   Relative error      =     0.0219828045 %
Recomputing EXC -1261.975366 -1265.435323 -1265.213978 
 Inaccurate integrated density:
   Number of electrons =    87
   Numerical integral  =    87.019539057652
   Relative error      =     0.0224586870 %
   46   -1265.4989113766      1.75E-01
 Inaccurate integrated density:
   Number of electrons =    87
   Numerical integral  =    87.019106264834
   Relative error      =     0.0219612239 %
Recomputing EXC -1261.849496 -1265.728933 -1265.498911 
 Inaccurate integrated density:
   Number of electrons =    87
   Numerical integral  =    87.019530775086
   Relative error      =     0.0224491668 %
Recomputing EXC -1265.429116 -1265.503313 -1265.498911 
 Inaccurate integrated density:
   Number of electrons =    87
   Numerical integral  =    87.019538899129
   Relative error      =     0.0224585047 %
Recomputing EXC -1265.497575 -1265.498996 -1265.498911 
   47   -1265.4975754254      1.75E-01
 Inaccurate integrated density:
   Number of electrons =    87
   Numerical integral  =    87.019106049572
   Relative error      =     0.0219609765 %
Recomputing EXC -1262.202528 -1265.727628 -1265.497575 
 Inaccurate integrated density:
   Number of electrons =    87
   Numerical integral  =    87.019529819522
   Relative error      =     0.0224480684 %
   48   -1265.7797893981      1.75E-01
 Inaccurate integrated density:
   Number of electrons =    87
   Numerical integral  =    87.018841660194
   Relative error      =     0.0216570807 %
Recomputing EXC -1262.350819 -1266.155850 -1265.779789 
 Inaccurate integrated density:
   Number of electrons =    87
   Numerical integral  =    87.019508317537
   Relative error      =     0.0224233535 %
Recomputing EXC -1265.672848 -1265.791535 -1265.779789 
 Inaccurate integrated density:
   Number of electrons =    87
   Numerical integral  =    87.019529147292
   Relative error      =     0.0224472957 %
Recomputing EXC -1265.776446 -1265.780157 -1265.779789 
   49   -1265.7764463340      1.75E-01
 Inaccurate integrated density:
   Number of electrons =    87
   Numerical integral  =    87.018842903037
   Relative error      =     0.0216585092 %
Recomputing EXC -1262.700142 -1266.151469 -1265.776446 
 Inaccurate integrated density:
   Number of electrons =    87
   Numerical integral  =    87.019505740271
   Relative error      =     0.0224203911 %
   50   -1266.0182530475      1.76E-01 Done RCA. Switching to DIIS
   51   -2010.6630917817      1.56E+00
   52   -1038.3206703324      2.31E-01
 Inaccurate integrated density:
   Number of electrons =    87
   Numerical integral  =    87.016514899706
   Relative error      =     0.0189826433 %
   53   -1234.2310925647      1.34E-01
 Inaccurate integrated density:
   Number of electrons =    87
   Numerical integral  =    87.011226432434
   Relative error      =     0.0129039453 %
   54   -1246.3827021717      1.92E-01
 Inaccurate integrated density:
   Number of electrons =    87
   Numerical integral  =    87.011047084905
   Relative error      =     0.0126977987 %
   55   -1198.5636117502      1.08E-01
 Inaccurate integrated density:
   Number of electrons =    87
   Numerical integral  =    87.010307041562
   Relative error      =     0.0118471742 %
   56    -643.5696028136      1.65E+00
 Inaccurate integrated density:
   Number of electrons =    87
   Numerical integral  =    87.013966920511
   Relative error      =     0.0160539316 %
   57    -571.4182464609      7.06E+00
 Inaccurate integrated density:
   Number of electrons =    87
   Numerical integral  =    87.013966633076
   Relative error      =     0.0160536012 %
   58    -567.0790510679      6.91E+00
 Inaccurate integrated density:
   Number of electrons =    87
   Numerical integral  =    87.013631867600
   Relative error      =     0.0156688133 %
   59   -1045.0283448865      4.05E-01
 Inaccurate integrated density:
   Number of electrons =    87
   Numerical integral  =    87.013730369162
   Relative error      =     0.0157820335 %
   60   -1252.0893819907      2.95E-01
 Inaccurate integrated density:
   Number of electrons =    87
   Numerical integral  =    87.013619169281
   Relative error      =     0.0156542176 %
   61   -1215.9781206395      8.39E-02
 Inaccurate integrated density:
   Number of electrons =    87
   Numerical integral  =    87.013574752268
   Relative error      =     0.0156031635 %
   62   -1241.0371465528      7.26E-02
 Inaccurate integrated density:
   Number of electrons =    87
   Numerical integral  =    87.013457836211
   Relative error      =     0.0154687773 %
   63   -1241.8401258354      7.48E-02
 Inaccurate integrated density:
   Number of electrons =    87
   Numerical integral  =    87.012775606654
   Relative error      =     0.0146846053 %
   64   -1252.9889253019      1.27E-01
 Inaccurate integrated density:
   Number of electrons =    87
   Numerical integral  =    87.013346296379
   Relative error      =     0.0153405706 %
   65   -1128.5986960123      3.96E-02
 Inaccurate integrated density:
   Number of electrons =    87
   Numerical integral  =    87.011712426711
   Relative error      =     0.0134625594 %
   66   -1121.7189791321      2.60E-02
   67   -1090.3749912676      2.86E-02
   68   -1098.4126373337      2.36E-02
   69   -1049.8526889427      3.91E-02
   70   -1053.4820448796      3.65E-02
   71   -1066.3449394155      2.99E-02
 Inaccurate integrated density:
   Number of electrons =    87
   Numerical integral  =    87.014293776674
   Relative error      =     0.0164296284 %
   72   -1222.7596348990      1.02E-01
 Inaccurate integrated density:
   Number of electrons =    87
   Numerical integral  =    87.014758575342
   Relative error      =     0.0169638797 %
   73   -1102.0813665860      1.47E-02
 Inaccurate integrated density:
   Number of electrons =    87
   Numerical integral  =    87.014096193717
   Relative error      =     0.0162025215 %
   74   -1137.0859236188      3.25E-02
 Inaccurate integrated density:
   Number of electrons =    87
   Numerical integral  =    87.014300837803
   Relative error      =     0.0164377446 %
   75   -1278.3938952911      1.70E-01
 Inaccurate integrated density:
   Number of electrons =    87
   Numerical integral  =    87.014122367054
   Relative error      =     0.0162326058 %
   76   -1189.3473804511      8.51E-02
 Inaccurate integrated density:
   Number of electrons =    87
   Numerical integral  =    87.012826286054
   Relative error      =     0.0147428575 %
   77   -1151.3730622404      3.62E-02
 Inaccurate integrated density:
   Number of electrons =    87
   Numerical integral  =    87.012897049594
   Relative error      =     0.0148241949 %
   78   -1075.9406908758      2.68E-02
 Inaccurate integrated density:
   Number of electrons =    87
   Numerical integral  =    87.013023613130
   Relative error      =     0.0149696703 %
   79   -1110.0500090543      1.05E-02
 Inaccurate integrated density:
   Number of electrons =    87
   Numerical integral  =    87.012752110179
   Relative error      =     0.0146575979 %
   80   -1077.0517224289      2.38E-02
 Inaccurate integrated density:
   Number of electrons =    87
   Numerical integral  =    87.012777651235
   Relative error      =     0.0146869554 %
   81   -1077.5995200691      2.38E-02
 Inaccurate integrated density:
   Number of electrons =    87
   Numerical integral  =    87.012799870992
   Relative error      =     0.0147124954 %
   82   -1085.5669644010      1.83E-02
 Inaccurate integrated density:
   Number of electrons =    87
   Numerical integral  =    87.012790564056
   Relative error      =     0.0147017978 %
   83   -1085.0223619124      1.86E-02
 Inaccurate integrated density:
   Number of electrons =    87
   Numerical integral  =    87.012738447215
   Relative error      =     0.0146418934 %
   84   -1076.7029590611      2.43E-02
 Inaccurate integrated density:
   Number of electrons =    87
   Numerical integral  =    87.012746852176
   Relative error      =     0.0146515542 %
   85   -1102.5930930569      8.38E-03
 Inaccurate integrated density:
   Number of electrons =    87
   Numerical integral  =    87.012973546307
   Relative error      =     0.0149121222 %
   86   -1123.6264052969      1.14E-02
 Inaccurate integrated density:
   Number of electrons =    87
   Numerical integral  =    87.013236644454
   Relative error      =     0.0152145339 %
   87   -1142.4680762550      1.88E-02
 Inaccurate integrated density:
   Number of electrons =    87
   Numerical integral  =    87.013386141882
   Relative error      =     0.0153863700 %
   88   -1131.2817343267      1.20E-02
 Inaccurate integrated density:
   Number of electrons =    87
   Numerical integral  =    87.013853057410
   Relative error      =     0.0159230545 %
   89   -1110.9662072530      3.04E-03
 Inaccurate integrated density:
   Number of electrons =    87
   Numerical integral  =    87.013924337501
   Relative error      =     0.0160049856 %
   90   -1095.4646560419      1.07E-02
 Inaccurate integrated density:
   Number of electrons =    87
   Numerical integral  =    87.013924551462
   Relative error      =     0.0160052316 %
   91   -1095.9415069197      1.04E-02
   92   -1103.0045705844      1.36E-02
   93   -1104.4942857958      5.47E-03
   94   -1104.4885989114      6.58E-03
   95   -1104.8249272964      1.44E-03
   96   -1104.8398654677      5.96E-04
   97   -1104.8424371406      1.60E-04
   98   -1104.8426497525      2.13E-05
   99   -1104.8426560152      1.63E-05
  100   -1104.8426590289      2.24E-06
  101   -1104.8426599172      9.37E-07
  102   -1104.8426602236      6.14E-07
  103   -1104.8426603598      2.20E-07
  104   -1104.8426604118      7.69E-08
  105   -1104.8426604131      2.69E-08
  106   -1104.8426604141      8.52E-09 Convergence criterion met
 ---------------------------------------
 <S^2> = 0.7627
 SCF time:  CPU 87.86 s  wall 78.91 s
 SCF   energy in the final basis set = -1104.8426604141
 Total energy in the final basis set = -1104.8426604141
 
 --------------------------------------------------------------
             Orbital Energies (a.u.) and Symmetries
 --------------------------------------------------------------
 
 Alpha MOs, Unrestricted
 -- Occupied --                  
-88.750 -88.750 -10.064 -10.064 -10.056 -10.056 -10.048 -10.048
  1 B     1 A     2 A     2 B     3 B     3 A     4 B     4 A                  
-10.033 -10.033  -7.809  -7.809  -5.773  -5.773  -5.770  -5.770
  5 B     5 A     6 B     6 A     7 B     7 A     8 B     8 A                  
 -5.766  -5.766  -0.724  -0.701  -0.606  -0.581  -0.570  -0.536
  9 A     9 B    10 A    10 B    11 A    12 A    11 B    12 B                  
 -0.447  -0.415  -0.394  -0.369  -0.363  -0.314  -0.261  -0.254
 13 A    14 A    13 B    14 B    15 A    15 B    16 A    17 A                  
 -0.246  -0.241  -0.239  -0.209  -0.206  -0.196  -0.176  -0.125
 16 B    17 B    18 A    19 A    18 B    20 A    19 B    20 B                  
 -0.109  -0.101  -0.051   0.049
 21 B    21 A    22 A    22 B                                                  
 -- Virtual --                   
  0.093   0.097   0.109   0.115   0.124   0.142   0.145   0.150
 23 A    23 B    24 A    24 B    25 A    26 A    25 B    27 A                  
  0.152   0.163   0.167   0.171   0.175   0.178   0.188   0.202
 28 A    26 B    29 A    27 B    28 B    30 A    29 B    30 B                  
  0.203   0.207   0.208   0.217   0.217   0.227   0.230   0.233
 31 A    32 A    31 B    33 A    32 B    34 A    33 B    35 A                  
  0.234   0.234   0.241   0.248   0.255   0.259   0.261   0.270
 34 B    36 A    37 A    35 B    38 A    39 A    36 B    40 A                  
  0.279   0.282   0.282   0.285   0.295   0.301   0.305   0.311
 37 B    41 A    38 B    39 B    40 B    41 B    42 A    43 A                  
  0.317   0.318   0.329   0.334   0.336   0.341   0.366   0.374
 42 B    44 A    45 A    46 A    43 B    44 B    47 A    45 B                  
  0.378   0.394   0.395   0.400   0.414   0.437   0.442   0.449
 46 B    47 B    48 A    49 A    48 B    50 A    51 A    49 B                  
  0.456   0.466   0.483   0.492   0.520   0.522   0.570   0.588
 52 A    50 B    53 A    51 B    52 B    54 A    53 B    55 A                  
  0.610   0.644   0.683   0.691   0.699   0.712   0.716   0.749
 56 A    54 B    57 A    55 B    56 B    58 A    57 B    59 A                  
  0.762   0.784   0.805   0.813   0.824   0.830   0.837   0.861
 60 A    58 B    61 A    59 B    60 B    62 A    63 A    64 A                  
  0.867   0.870   0.873   0.887   0.906   0.912   0.938   0.948
 61 B    65 A    62 B    63 B    66 A    64 B    67 A    65 B                  
  0.979   0.987   1.012   1.033   1.067   1.081   1.103   1.104
 66 B    68 A    67 B    69 A    68 B    70 A    69 B    71 A                  
  1.112   1.115   1.120   1.131   1.137   1.148   1.158   1.184
 72 A    70 B    71 B    73 A    72 B    73 B    74 A    75 A                  
  1.189   1.222   1.237   1.253   1.261   1.274   1.315   1.326
 76 A    74 B    77 A    75 B    78 A    76 B    79 A    77 B                  
  1.338   1.342   1.399   1.405   1.490   1.506   1.511   1.512
 80 A    78 B    81 A    79 B    80 B    82 A    83 A    81 B                  
  1.525   1.534   1.607   1.655   1.672   1.719   1.748   1.809
 82 B    84 A    83 B    85 A    84 B    86 A    85 B    86 B                  
  1.844   1.862   1.971   1.989   2.032   2.053   2.066   2.087
 87 A    87 B    88 A    89 A    90 A    88 B    89 B    91 A                  
  2.132   2.136   2.162   2.165   2.211   2.228   2.272   2.278
 92 A    90 B    91 B    93 A    94 A    92 B    93 B    95 A                  
  2.312   2.315   2.381   2.414   2.432   2.441   2.512   2.516
 96 A    94 B    95 B    97 A    96 B    98 A    97 B    99 A                  
  2.568   2.599   2.623   2.630   2.659   2.665   2.679   2.697
 98 B   100 A    99 B   101 A   102 A   100 B   101 B   103 A                  
  2.727   2.732   2.746   2.836   2.846   2.874   2.914   2.958
104 A   105 A   102 B   103 B   104 B   106 A   107 A   105 B                  
  2.999   3.095   3.147   3.288   3.373   3.418   3.420   3.550
108 A   106 B   107 B   109 A   108 B   110 A   109 B   111 A                  
  3.584   3.857   3.899   4.101   4.173   4.405   4.456   4.464
110 B   112 A   111 B   113 A   112 B   114 A   115 A   113 B                  
  4.483   4.570   4.692   4.801   4.892
114 B   116 A   115 B   117 A   116 B                                          
 
 Beta MOs, Unrestricted
 -- Occupied --                  
-88.749 -88.749 -10.062 -10.062 -10.052 -10.052 -10.049 -10.049
  1 B     1 A     2 A     2 B     3 B     3 A     4 B     4 A                  
-10.031 -10.031  -7.808  -7.808  -5.773  -5.773  -5.769  -5.769
  5 B     5 A     6 B     6 A     7 B     7 A     8 B     8 A                  
 -5.764  -5.764  -0.720  -0.698  -0.601  -0.577  -0.567  -0.531
  9 A     9 B    10 A    10 B    11 A    12 A    11 B    12 B                  
 -0.440  -0.413  -0.390  -0.366  -0.362  -0.313  -0.259  -0.253
 13 A    14 A    13 B    14 B    15 A    15 B    16 A    17 A                  
 -0.244  -0.236  -0.231  -0.204  -0.199  -0.194  -0.174  -0.110
 16 B    18 A    17 B    18 B    19 A    20 A    19 B    20 B                  
 -0.099  -0.093  -0.033
 21 B    21 A    22 A                                                          
 -- Virtual --                   
  0.093   0.096   0.102   0.108   0.114   0.124   0.145   0.146
 23 A    22 B    23 B    24 A    24 B    25 A    25 B    26 A                  
  0.152   0.158   0.163   0.169   0.175   0.176   0.178   0.189
 27 A    28 A    26 B    29 A    27 B    28 B    30 A    29 B                  
  0.202   0.205   0.208   0.211   0.217   0.219   0.228   0.230
 30 B    31 A    32 A    31 B    33 A    32 B    34 A    33 B                  
  0.234   0.235   0.236   0.242   0.250   0.257   0.262   0.262
 35 A    34 B    36 A    37 A    35 B    38 A    39 A    36 B                  
  0.271   0.280   0.283   0.285   0.287   0.295   0.302   0.309
 40 A    37 B    38 B    41 A    39 B    40 B    41 B    42 A                  
  0.312   0.318   0.319   0.330   0.334   0.337   0.341   0.367
 43 A    44 A    42 B    45 A    46 A    43 B    44 B    47 A                  
  0.374   0.378   0.395   0.395   0.400   0.414   0.441   0.443
 45 B    46 B    48 A    47 B    49 A    48 B    50 A    51 A                  
  0.451   0.457   0.467   0.483   0.492   0.523   0.523   0.572
 49 B    52 A    50 B    53 A    51 B    54 A    52 B    53 B                  
  0.590   0.612   0.647   0.686   0.693   0.700   0.714   0.719
 55 A    56 A    54 B    57 A    55 B    56 B    58 A    57 B                  
  0.750   0.764   0.787   0.815   0.819   0.832   0.834   0.839
 59 A    60 A    58 B    61 A    59 B    60 B    62 A    63 A                  
  0.862   0.870   0.873   0.878   0.890   0.912   0.914   0.940
 64 A    61 B    65 A    62 B    63 B    66 A    64 B    67 A                  
  0.950   0.986   0.994   1.018   1.035   1.068   1.083   1.105
 65 B    66 B    68 A    67 B    69 A    68 B    70 A    71 A                  
  1.106   1.115   1.116   1.122   1.133   1.138   1.149   1.160
 69 B    70 B    72 A    71 B    73 A    72 B    73 B    74 A                  
  1.187   1.192   1.223   1.239   1.256   1.263   1.278   1.319
 75 A    76 A    74 B    77 A    75 B    78 A    76 B    79 A                  
  1.328   1.340   1.345   1.402   1.410   1.493   1.509   1.516
 77 B    80 A    78 B    81 A    79 B    80 B    82 A    81 B                  
  1.517   1.530   1.537   1.609   1.657   1.675   1.726   1.753
 83 A    82 B    84 A    83 B    85 A    84 B    86 A    85 B                  
  1.816   1.854   1.872   1.975   1.990   2.036   2.054   2.067
 86 B    87 A    87 B    88 A    89 A    90 A    88 B    89 B                  
  2.089   2.136   2.140   2.166   2.168   2.215   2.230   2.279
 91 A    92 A    90 B    91 B    93 A    94 A    92 B    93 B                  
  2.286   2.321   2.322   2.389   2.418   2.436   2.444   2.515
 95 A    94 B    96 A    95 B    97 A    96 B    98 A    97 B                  
  2.518   2.573   2.601   2.624   2.632   2.663   2.669   2.682
 99 A    98 B   100 A    99 B   101 A   102 A   100 B   101 B                  
  2.701   2.731   2.736   2.750   2.838   2.847   2.878   2.916
103 A   104 A   105 A   102 B   103 B   104 B   106 A   107 A                  
  2.961   3.001   3.098   3.148   3.289   3.374   3.418   3.420
105 B   108 A   106 B   107 B   109 A   108 B   110 A   109 B                  
  3.551   3.585   3.858   3.900   4.103   4.175   4.409   4.458
111 A   110 B   112 A   111 B   113 A   112 B   114 A   115 A                  
  4.468   4.485   4.575   4.698   4.804   4.895
113 B   114 B   116 A   115 B   117 A   116 B                                  
 --------------------------------------------------------------
 
          Ground-State Mulliken Net Atomic Charges

     Atom                 Charge (a.u.)    Spin (a.u.)
  --------------------------------------------------------
      1 S                    -0.315404       0.108626
      2 C                    -0.093136       0.242801
      3 C                    -0.316685      -0.074583
      4 C                     0.153924       0.234008
      5 C                    -0.231213       0.007946
      6 H                     0.080480      -0.007947
      7 C                    -0.231213       0.007946
      8 S                    -0.315404       0.108626
      9 C                     0.153924       0.234008
     10 C                    -0.093136       0.242801
     11 C                    -0.316685      -0.074583
     12 H                     0.073512       0.003901
     13 H                     0.148522      -0.014753
     14 H                     0.073512       0.003901
     15 H                     0.148522      -0.014753
     16 H                     0.080480      -0.007947
  --------------------------------------------------------
  Sum of atomic charges =    -1.000000
  Sum of spin   charges =     1.000000

 -----------------------------------------------------------------
                    Cartesian Multipole Moments
 -----------------------------------------------------------------
    Charge (ESU x 10^10)
                -4.8032
    Dipole Moment (Debye)
         X       0.0000      Y       0.0000      Z      -0.3746
       Tot       0.3746
    Quadrupole Moments (Debye-Ang)
        XX     -99.1384     XY      -0.2138     YY     -87.1352
        XZ       0.0000     YZ      -0.0000     ZZ     -83.4263
    Octopole Moments (Debye-Ang^2)
       XXX       0.0000    XXY       0.0000    XYY       0.0000
       YYY      -0.0000    XXZ       9.3662    XYZ       3.0241
       YYZ       4.5282    XZZ      -0.0000    YZZ      -0.0000
       ZZZ       0.9908
    Hexadecapole Moments (Debye-Ang^3)
      XXXX   -2466.8546   XXXY       0.0893   XXYY    -487.2939
      XYYY       4.8789   YYYY    -161.3877   XXXZ       0.0000
      XXYZ      -0.0000   XYYZ      -0.0000   YYYZ       0.0000
      XXZZ    -501.3661   XYZZ      -2.1963   YYZZ    -154.3835
      XZZZ      -0.0000   YZZZ       0.0000   ZZZZ    -666.7492
 -----------------------------------------------------------------
 Calculating analytic gradient of the SCF energy
 Gradient of SCF Energy
            1           2           3           4           5           6
    1  -0.0023727   0.0000764   0.0003955   0.0005581  -0.0021276   0.0002246
    2   0.0013852   0.0002501  -0.0021458  -0.0029607   0.0011969   0.0012348
    3   0.0006093  -0.0016468   0.0012720   0.0011139  -0.0011965  -0.0002043
            7           8           9          10          11          12
    1   0.0021276   0.0023727  -0.0005581  -0.0000764  -0.0003955   0.0000034
    2  -0.0011969  -0.0013852   0.0029607  -0.0002501   0.0021458  -0.0001100
    3  -0.0011965   0.0006093   0.0011139  -0.0016468   0.0012720   0.0000948
           13          14          15          16
    1  -0.0000162  -0.0000034   0.0000162  -0.0002246
    2   0.0010945   0.0001100  -0.0010945  -0.0012348
    3  -0.0000424   0.0000948  -0.0000424  -0.0002043
 Max gradient component =       2.961E-03
 RMS gradient           =       1.252E-03
 Gradient time:  CPU 1.88 s  wall 1.88 s
 Geometry Optimization Parameters
   NAtoms,    NIC,     NZ,  NCons,   NDum,   NFix, NCnnct, MaxDiis
       16     111       0       1       0       0       0       0


** CONSTRAINED OPTIMIZATION IN DELOCALIZED INTERNAL COORDINATES **
   Searching for a Minimum

   Optimization Cycle:   1

                       Coordinates (Angstroms)
     ATOM                X               Y               Z
      1  S         1.6295880894    0.2294316867    1.1513568721
      2  C         3.1740736756    0.0459017150    0.3109306535
      3  C         2.9701767759   -0.1873640611   -1.0363612392
      4  C         1.6143070170   -0.2249850275   -1.4268155873
      5  C         0.7039989519   -0.0163984765   -0.3644042327
      6  H         1.2838221883   -0.3960658343   -2.4457935235
      7  C        -0.7039989519    0.0163984765   -0.3644042327
      8  S        -1.6295880894   -0.2294316867    1.1513568721
      9  C        -1.6143070170    0.2249850275   -1.4268155873
     10  C        -3.1740736756   -0.0459017150    0.3109306535
     11  C        -2.9701767759    0.1873640611   -1.0363612392
     12  H        -3.7918569320    0.3296877474   -1.7344652076
     13  H         4.1034244707    0.1193710951    0.8584513456
     14  H         3.7918569320   -0.3296877474   -1.7344652076
     15  H        -4.1034244707   -0.1193710951    0.8584513456
     16  H        -1.2838221883    0.3960658343   -2.4457935235
   Point Group: c2    Number of degrees of freedom:    22


   Energy is  -1104.842660414

              Constraints and their Current Values
                                        Value     Constraint
   Dihedral:        4   5   7   9      -20.000      -20.000

 Attempting to Generate Delocalized Internal Coordinates

 21 Hessian modes will be used to form the next step
  Hessian Eigenvalues:
     0.045000    0.045000    0.045000    0.045000    0.045000    0.045000
     0.160000    0.160000    0.160000    0.221184    0.237470    0.250000
     0.264210    0.283931    0.350974    0.354198    0.358566    0.414224
     0.425056    0.442595    0.471396

 Minimum Search - Taking Simple RFO Step
 Searching for Lamda that Minimizes Along All modes
 Value Taken    Lamda =  -0.00097520
 Step Taken.  Stepsize is  0.114387

                             Maximum     Tolerance    Cnvgd?
         Gradient           0.009112      0.000300      NO
         Displacement       0.080513      0.001200      NO
         Energy change     *********      0.000001      NO


 New Cartesian Coordinates Obtained by Inverse Iteration

 Displacement from previous Coordinates is:  0.287984
 ----------------------------------------------------------------
             Standard Nuclear Orientation (Angstroms)
    I     Atom           X                Y                Z
 ----------------------------------------------------------------
    1      S       1.6611500330     0.2107515184     1.1685198706
    2      C       3.1901194661     0.0350386189     0.3005653938
    3      C       2.9615107770    -0.1633673381    -1.0493476176
    4      C       1.5989082717    -0.2031257324    -1.4145057328
    5      C       0.7061166623    -0.0056706145    -0.3353776872
    6      H       1.2495313807    -0.3739785985    -2.4273136487
    7      C      -0.7061166623     0.0056706145    -0.3353776872
    8      S      -1.6611500330    -0.2107515184     1.1685198706
    9      C      -1.5989082717     0.2031257324    -1.4145057328
   10      C      -3.1901194661    -0.0350386189     0.3005653938
   11      C      -2.9615107770     0.1633673381    -1.0493476176
   12      H      -3.7698855135     0.3002562597    -1.7640569152
   13      H       4.1290135178     0.0822373656     0.8344154180
   14      H       3.7698855135    -0.3002562597    -1.7640569152
   15      H      -4.1290135178    -0.0822373656     0.8344154180
   16      H      -1.2495313807     0.3739785985    -2.4273136487
 ----------------------------------------------------------------
 Molecular Point Group                 C2    NOp =  2
 Largest Abelian Subgroup              C2    NOp =  2
 Nuclear Repulsion Energy =   626.1657912617 hartrees
 There are       44 alpha and       43 beta electrons
 Applying Cartesian multipole field
    Component          Value
    ---------          -----
     (2,0,0)        1.00000E-11
     (0,2,0)        2.00000E-11
     (0,0,2)       -3.00000E-11
 Nucleus-field energy     =     0.0000000041 hartrees
 Requested basis set is 6-31++G(d,p)
 There are 76 shells and 234 basis functions
 A cutoff of  1.0D-12 yielded   2527 shell pairs
 There are     24869 function pairs
 Smallest overlap matrix eigenvalue = 8.76E-07
 Linear dependence detected in AO basis
 Number of orthogonalized atomic orbitals = 233
 Maximum deviation from orthogonality = 7.419E-11
 Guess MOs from SCF MO coefficient file
 Reading MOs from coefficient file
 Reading MOs from coefficient file
 An unrestricted hybrid HF-DFT SCF calculation will be
 performed using Relaxed Constraint Minimization + Pulay DIIS
 Exchange:     0.2000 Hartree-Fock + 0.0800 Slater + 0.7200 B88
 Correlation:  0.1900 VWN1RPA + 0.8100 LYP
 Using SG-1 standard quadrature grid
 SCF converges when DIIS error is below 1.0E-08
 Geometry optimization detected.  Setting ReadMinima to 0
 Setting SaveMinima to 0
 ---------------------------------------
  Cycle       Energy         DIIS Error
 ---------------------------------------
    1   -1104.8309768917      1.15E-03
    2   -1104.8430611269      1.71E-04 Done RCA. Switching to DIIS
    3   -1104.8420153178      4.01E-04
    4   -1104.8433084430      2.54E-05
    5   -1104.8433126352      1.31E-05
    6   -1104.8433139801      3.60E-06
    7   -1104.8433140968      8.14E-07
    8   -1104.8433141046      3.95E-07
    9   -1104.8433141068      1.14E-07
   10   -1104.8433141074      4.62E-08
   11   -1104.8433141076      1.55E-08
   12   -1104.8433141076      6.74E-09 Convergence criterion met
 ---------------------------------------
 <S^2> = 0.7627
 SCF time:  CPU 8.61 s  wall 7.81 s
 SCF   energy in the final basis set = -1104.8433141076
 Total energy in the final basis set = -1104.8433141076
 
 --------------------------------------------------------------
             Orbital Energies (a.u.) and Symmetries
 --------------------------------------------------------------
 
 Alpha MOs, Unrestricted
 -- Occupied --                  
-88.750 -88.750 -10.065 -10.064 -10.056 -10.056 -10.049 -10.049
  1 B     1 A     2 A     2 B     3 B     3 A     4 B     4 A                  
-10.033 -10.033  -7.809  -7.809  -5.774  -5.774  -5.770  -5.770
  5 B     5 A     6 B     6 A     7 B     7 A     8 B     8 A                  
 -5.767  -5.767  -0.723  -0.702  -0.605  -0.581  -0.571  -0.536
  9 A     9 B    10 A    10 B    11 A    12 A    11 B    12 B                  
 -0.447  -0.415  -0.394  -0.369  -0.363  -0.315  -0.262  -0.254
 13 A    14 A    13 B    14 B    15 A    15 B    16 A    17 A                  
 -0.246  -0.240  -0.239  -0.209  -0.208  -0.196  -0.177  -0.125
 16 B    17 B    18 A    19 A    18 B    20 A    19 B    20 B                  
 -0.109  -0.102  -0.052   0.049
 21 B    21 A    22 A    22 B                                                  
 -- Virtual --                   
  0.093   0.097   0.109   0.115   0.124   0.143   0.146   0.150
 23 A    23 B    24 A    24 B    25 A    26 A    25 B    27 A                  
  0.151   0.163   0.166   0.171   0.175   0.177   0.188   0.200
 28 A    26 B    29 A    27 B    28 B    30 A    29 B    30 B                  
  0.204   0.207   0.208   0.216   0.217   0.227   0.228   0.233
 31 A    32 A    31 B    32 B    33 A    34 A    33 B    35 A                  
  0.234   0.234   0.241   0.249   0.255   0.259   0.261   0.269
 34 B    36 A    37 A    35 B    38 A    39 A    36 B    40 A                  
  0.277   0.280   0.282   0.285   0.297   0.300   0.305   0.313
 37 B    41 A    38 B    39 B    40 B    41 B    42 A    43 A                  
  0.315   0.318   0.327   0.331   0.336   0.343   0.364   0.370
 42 B    44 A    45 A    46 A    43 B    44 B    47 A    45 B                  
  0.382   0.395   0.396   0.400   0.415   0.437   0.442   0.449
 46 B    47 B    48 A    49 A    48 B    50 A    51 A    49 B                  
  0.455   0.467   0.482   0.492   0.521   0.522   0.569   0.586
 52 A    50 B    53 A    51 B    52 B    54 A    53 B    55 A                  
  0.609   0.645   0.682   0.686   0.700   0.712   0.715   0.750
 56 A    54 B    57 A    55 B    56 B    58 A    57 B    59 A                  
  0.763   0.788   0.804   0.813   0.827   0.827   0.835   0.861
 60 A    58 B    61 A    59 B    60 B    62 A    63 A    64 A                  
  0.864   0.870   0.872   0.885   0.907   0.910   0.938   0.947
 61 B    65 A    62 B    63 B    66 A    64 B    67 A    65 B                  
  0.977   0.987   1.007   1.032   1.066   1.081   1.103   1.104
 66 B    68 A    67 B    69 A    68 B    70 A    69 B    71 A                  
  1.113   1.114   1.122   1.130   1.141   1.154   1.156   1.181
 72 A    70 B    71 B    73 A    72 B    73 B    74 A    75 A                  
  1.188   1.223   1.236   1.253   1.258   1.275   1.313   1.326
 76 A    74 B    77 A    75 B    78 A    76 B    79 A    77 B                  
  1.337   1.344   1.397   1.406   1.489   1.504   1.511   1.515
 80 A    78 B    81 A    79 B    80 B    82 A    83 A    81 B                  
  1.525   1.536   1.611   1.652   1.669   1.716   1.751   1.801
 82 B    84 A    83 B    85 A    84 B    86 A    85 B    86 B                  
  1.844   1.859   1.968   1.992   2.031   2.053   2.065   2.087
 87 A    87 B    88 A    89 A    90 A    88 B    89 B    91 A                  
  2.135   2.136   2.160   2.161   2.213   2.224   2.274   2.279
 90 B    92 A    91 B    93 A    94 A    92 B    93 B    95 A                  
  2.307   2.313   2.379   2.411   2.434   2.443   2.513   2.516
 96 A    94 B    95 B    97 A    96 B    98 A    97 B    99 A                  
  2.567   2.599   2.623   2.625   2.663   2.665   2.676   2.693
 98 B   100 A    99 B   101 A   102 A   100 B   101 B   103 A                  
  2.724   2.732   2.747   2.836   2.841   2.874   2.912   2.961
104 A   105 A   102 B   103 B   104 B   106 A   107 A   105 B                  
  3.001   3.090   3.141   3.288   3.370   3.418   3.419   3.549
108 A   106 B   107 B   109 A   108 B   110 A   109 B   111 A                  
  3.583   3.855   3.899   4.100   4.172   4.406   4.455   4.462
110 B   112 A   111 B   113 A   112 B   114 A   115 A   113 B                  
  4.484   4.567   4.689   4.800   4.888
114 B   116 A   115 B   117 A   116 B                                          
 
 Beta MOs, Unrestricted
 -- Occupied --                  
-88.750 -88.750 -10.063 -10.063 -10.053 -10.053 -10.050 -10.050
  1 B     1 A     2 A     2 B     3 B     3 A     4 B     4 A                  
-10.031 -10.031  -7.809  -7.809  -5.773  -5.773  -5.770  -5.770
  5 B     5 A     6 B     6 A     7 B     7 A     8 B     8 A                  
 -5.765  -5.765  -0.720  -0.699  -0.600  -0.578  -0.568  -0.531
  9 A     9 B    10 A    10 B    11 A    12 A    11 B    12 B                  
 -0.440  -0.412  -0.390  -0.366  -0.362  -0.313  -0.260  -0.252
 13 A    14 A    13 B    14 B    15 A    15 B    16 A    17 A                  
 -0.243  -0.236  -0.230  -0.206  -0.200  -0.194  -0.174  -0.110
 16 B    18 A    17 B    18 B    19 A    20 A    19 B    20 B                  
 -0.099  -0.093  -0.033
 21 B    21 A    22 A                                                          
 -- Virtual --                   
  0.093   0.096   0.102   0.108   0.114   0.124   0.146   0.147
 23 A    22 B    23 B    24 A    24 B    25 A    25 B    26 A                  
  0.151   0.158   0.163   0.168   0.175   0.176   0.177   0.189
 27 A    28 A    26 B    29 A    27 B    28 B    30 A    29 B                  
  0.200   0.205   0.208   0.210   0.217   0.218   0.228   0.228
 30 B    31 A    32 A    31 B    33 A    32 B    34 A    33 B                  
  0.234   0.235   0.236   0.242   0.250   0.256   0.262   0.262
 35 A    34 B    36 A    37 A    35 B    38 A    36 B    39 A                  
  0.270   0.279   0.284   0.284   0.287   0.297   0.300   0.309
 40 A    37 B    38 B    41 A    39 B    40 B    41 B    42 A                  
  0.313   0.317   0.319   0.328   0.332   0.337   0.343   0.364
 43 A    42 B    44 A    45 A    46 A    43 B    44 B    47 A                  
  0.370   0.382   0.396   0.396   0.400   0.415   0.440   0.443
 45 B    46 B    47 B    48 A    49 A    48 B    50 A    51 A                  
  0.451   0.456   0.468   0.483   0.492   0.522   0.524   0.571
 49 B    52 A    50 B    53 A    51 B    54 A    52 B    53 B                  
  0.588   0.611   0.648   0.685   0.689   0.702   0.714   0.718
 55 A    56 A    54 B    57 A    55 B    56 B    58 A    57 B                  
  0.751   0.764   0.791   0.815   0.819   0.832   0.835   0.836
 59 A    60 A    58 B    61 A    59 B    62 A    60 B    63 A                  
  0.862   0.867   0.873   0.879   0.887   0.912   0.913   0.940
 64 A    61 B    65 A    62 B    63 B    64 B    66 A    67 A                  
  0.949   0.984   0.994   1.014   1.034   1.067   1.083   1.104
 65 B    66 B    68 A    67 B    69 A    68 B    70 A    71 A                  
  1.105   1.114   1.117   1.125   1.132   1.142   1.155   1.157
 69 B    70 B    72 A    71 B    73 A    72 B    73 B    74 A                  
  1.183   1.191   1.225   1.237   1.256   1.261   1.279   1.318
 75 A    76 A    74 B    77 A    75 B    78 A    76 B    79 A                  
  1.327   1.339   1.346   1.400   1.411   1.492   1.508   1.516
 77 B    80 A    78 B    81 A    79 B    80 B    82 A    83 A                  
  1.519   1.530   1.539   1.613   1.653   1.672   1.723   1.756
 81 B    82 B    84 A    83 B    85 A    84 B    86 A    85 B                  
  1.807   1.854   1.870   1.972   1.994   2.035   2.054   2.066
 86 B    87 A    87 B    88 A    89 A    90 A    88 B    89 B                  
  2.089   2.140   2.140   2.163   2.164   2.216   2.226   2.282
 91 A    90 B    92 A    93 A    91 B    94 A    92 B    93 B                  
  2.287   2.317   2.319   2.387   2.415   2.438   2.446   2.515
 95 A    96 A    94 B    95 B    97 A    96 B    98 A    97 B                  
  2.518   2.572   2.602   2.623   2.628   2.667   2.668   2.679
 99 A    98 B   100 A    99 B   101 A   102 A   100 B   101 B                  
  2.698   2.728   2.736   2.751   2.839   2.842   2.878   2.914
103 A   104 A   105 A   102 B   103 B   104 B   106 A   107 A                  
  2.964   3.003   3.092   3.143   3.289   3.371   3.418   3.419
105 B   108 A   106 B   107 B   109 A   108 B   110 A   109 B                  
  3.550   3.584   3.856   3.900   4.102   4.173   4.410   4.457
111 A   110 B   112 A   111 B   113 A   112 B   114 A   115 A                  
  4.466   4.487   4.573   4.695   4.802   4.891
113 B   114 B   116 A   115 B   117 A   116 B                                  
 --------------------------------------------------------------
 
          Ground-State Mulliken Net Atomic Charges

     Atom                 Charge (a.u.)    Spin (a.u.)
  --------------------------------------------------------
      1 S                    -0.297312       0.108646
      2 C                    -0.111225       0.241396
      3 C                    -0.294918      -0.070126
      4 C                     0.098725       0.228296
      5 C                    -0.197678       0.010743
      6 H                     0.079463      -0.008186
      7 C                    -0.197678       0.010743
      8 S                    -0.297312       0.108646
      9 C                     0.098725       0.228296
     10 C                    -0.111225       0.241396
     11 C                    -0.294918      -0.070126
     12 H                     0.074530       0.003995
     13 H                     0.148416      -0.014765
     14 H                     0.074530       0.003995
     15 H                     0.148416      -0.014765
     16 H                     0.079463      -0.008186
  --------------------------------------------------------
  Sum of atomic charges =    -1.000000
  Sum of spin   charges =     1.000000

 -----------------------------------------------------------------
                    Cartesian Multipole Moments
 -----------------------------------------------------------------
    Charge (ESU x 10^10)
                -4.8032
    Dipole Moment (Debye)
         X      -0.0000      Y       0.0000      Z      -0.4291
       Tot       0.4291
    Quadrupole Moments (Debye-Ang)
        XX     -99.2905     XY      -0.4918     YY     -87.1457
        XZ       0.0000     YZ      -0.0000     ZZ     -83.5114
    Octopole Moments (Debye-Ang^2)
       XXX      -0.0000    XXY      -0.0000    XYY       0.0000
       YYY       0.0000    XXZ       8.4823    XYZ       2.6369
       YYZ       3.8374    XZZ      -0.0000    YZZ       0.0000
       ZZZ      -1.3460
    Hexadecapole Moments (Debye-Ang^3)
      XXXX   -2483.2354   XXXY      -5.3774   XXYY    -490.5518
      XYYY       3.0265   YYYY    -157.6516   XXXZ       0.0000
      XXYZ      -0.0000   XYYZ       0.0000   YYYZ      -0.0000
      XXZZ    -504.8333   XYZZ      -3.2234   YYZZ    -154.9093
      XZZZ       0.0000   YZZZ      -0.0000   ZZZZ    -671.6640
 -----------------------------------------------------------------
 Calculating analytic gradient of the SCF energy
 Gradient of SCF Energy
            1           2           3           4           5           6
    1   0.0000699   0.0003170   0.0002792  -0.0001099   0.0001740  -0.0000137
    2   0.0012064  -0.0004837   0.0000506  -0.0037496   0.0034660   0.0007101
    3   0.0004479  -0.0002241   0.0004931   0.0012918  -0.0017784  -0.0001871
            7           8           9          10          11          12
    1  -0.0001740  -0.0000699   0.0001099  -0.0003170  -0.0002792  -0.0000043
    2  -0.0034660  -0.0012064   0.0037496   0.0004837  -0.0000506   0.0000287
    3  -0.0017784   0.0004479   0.0012918  -0.0002241   0.0004931   0.0000094
           13          14          15          16
    1   0.0000873   0.0000043  -0.0000873   0.0000137
    2   0.0005316  -0.0000287  -0.0005316  -0.0007101
    3  -0.0000525   0.0000094  -0.0000525  -0.0001871
 Max gradient component =       3.750E-03
 RMS gradient           =       1.193E-03
 Gradient time:  CPU 1.86 s  wall 1.86 s
 Geometry Optimization Parameters
   NAtoms,    NIC,     NZ,  NCons,   NDum,   NFix, NCnnct, MaxDiis
       16     111       0       1       0       0       0       0

 Cartesian Hessian Update
 Hessian Updated using BFGS Update


** CONSTRAINED OPTIMIZATION IN DELOCALIZED INTERNAL COORDINATES **
   Searching for a Minimum

   Optimization Cycle:   2

                       Coordinates (Angstroms)
     ATOM                X               Y               Z
      1  S         1.6611500330    0.2107515184    1.1685198706
      2  C         3.1901194661    0.0350386189    0.3005653938
      3  C         2.9615107770   -0.1633673381   -1.0493476176
      4  C         1.5989082717   -0.2031257324   -1.4145057328
      5  C         0.7061166623   -0.0056706145   -0.3353776872
      6  H         1.2495313807   -0.3739785985   -2.4273136487
      7  C        -0.7061166623    0.0056706145   -0.3353776872
      8  S        -1.6611500330   -0.2107515184    1.1685198706
      9  C        -1.5989082717    0.2031257324   -1.4145057328
     10  C        -3.1901194661   -0.0350386189    0.3005653938
     11  C        -2.9615107770    0.1633673381   -1.0493476176
     12  H        -3.7698855135    0.3002562597   -1.7640569152
     13  H         4.1290135178    0.0822373656    0.8344154180
     14  H         3.7698855135   -0.3002562597   -1.7640569152
     15  H        -4.1290135178   -0.0822373656    0.8344154180
     16  H        -1.2495313807    0.3739785985   -2.4273136487
   Point Group: c2    Number of degrees of freedom:    22


   Energy is  -1104.843314108

              Constraints and their Current Values
                                        Value     Constraint
   Dihedral:        4   5   7   9      -20.000      -20.000
 Hessian Updated using BFGS Update

 17 Hessian modes will be used to form the next step
  Hessian Eigenvalues:
     0.027217    0.047744    0.159999    0.160000    0.160131    0.220285
     0.228127    0.245683    0.277678    0.284413    0.350981    0.354259
     0.358576    0.414341    0.425633    0.461012    0.470583

 Minimum Search - Taking Simple RFO Step
 Searching for Lamda that Minimizes Along All modes
 Value Taken    Lamda =  -0.00034219
 Step Taken.  Stepsize is  0.106430

                             Maximum     Tolerance    Cnvgd?
         Gradient           0.002196      0.000300      NO
         Displacement       0.074876      0.001200      NO
         Energy change     -0.000654      0.000001      NO


 New Cartesian Coordinates Obtained by Inverse Iteration

 Displacement from previous Coordinates is:  0.191788
 ----------------------------------------------------------------
             Standard Nuclear Orientation (Angstroms)
    I     Atom           X                Y                Z
 ----------------------------------------------------------------
    1      S       1.6711975606     0.1895963636     1.1790666230
    2      C       3.1920164990     0.0274910880     0.2954827650
    3      C       2.9534215368    -0.1455251159    -1.0568632766
    4      C       1.5885742634    -0.1801857805    -1.4102802435
    5      C       0.7057197495     0.0053493975    -0.3201356737
[...]
      4 C                     0.132033       0.229220
      5 C                    -0.120534       0.011265
      6 H                     0.079710      -0.009029
      7 C                    -0.120534       0.011265
      8 S                    -0.299741       0.107827
      9 C                     0.132033       0.229220
     10 C                    -0.132610       0.240731
     11 C                    -0.371893      -0.069041
     12 H                     0.068433       0.004080
     13 H                     0.144602      -0.015054
     14 H                     0.068433       0.004080
     15 H                     0.144602      -0.015054
     16 H                     0.079710      -0.009029
  --------------------------------------------------------
  Sum of atomic charges =    -1.000000
  Sum of spin   charges =     1.000000

 -----------------------------------------------------------------
                    Cartesian Multipole Moments
 -----------------------------------------------------------------
    Charge (ESU x 10^10)
                -4.8032
    Dipole Moment (Debye)
         X      -0.0000      Y      -0.0000      Z      -0.4229
       Tot       0.4229
    Quadrupole Moments (Debye-Ang)
        XX     -99.3054     XY      -0.8314     YY     -87.1494
        XZ      -0.0000     YZ       0.0000     ZZ     -83.4963
    Octopole Moments (Debye-Ang^2)
       XXX      -0.0000    XXY       0.0000    XYY      -0.0000
       YYY      -0.0000    XXZ       8.2609    XYZ       2.1414
       YYZ       3.5785    XZZ      -0.0000    YZZ      -0.0000
       ZZZ      -2.0182
    Hexadecapole Moments (Debye-Ang^3)
      XXXX   -2480.4982   XXXY      -8.8095   XXYY    -489.6735
      XYYY       5.4216   YYYY    -151.3763   XXXZ      -0.0000
      XXYZ       0.0000   XYYZ      -0.0000   YYYZ       0.0000
      XXZZ    -504.1364   XYZZ      -3.1649   YYZZ    -155.7698
      XZZZ       0.0000   YZZZ       0.0000   ZZZZ    -675.8944
 -----------------------------------------------------------------
 Calculating analytic gradient of the SCF energy
 Gradient of SCF Energy
            1           2           3           4           5           6
    1  -0.0000093   0.0000136   0.0000040   0.0000687  -0.0001756   0.0000003
    2   0.0000201   0.0000817  -0.0001209  -0.0031579   0.0072210  -0.0000348
    3   0.0000417  -0.0000267   0.0000272   0.0005971  -0.0006352   0.0000017
            7           8           9          10          11          12
    1   0.0001756   0.0000093  -0.0000687  -0.0000136  -0.0000040  -0.0000016
    2  -0.0072210  -0.0000201   0.0031579  -0.0000817   0.0001209  -0.0000554
    3  -0.0006352   0.0000417   0.0005971  -0.0000267   0.0000272  -0.0000100
           13          14          15          16
    1  -0.0000013   0.0000016   0.0000013  -0.0000003
    2  -0.0000508   0.0000554   0.0000508   0.0000348
    3   0.0000041  -0.0000100   0.0000041   0.0000017
 Max gradient component =       7.221E-03
 RMS gradient           =       1.619E-03
 Gradient time:  CPU 1.86 s  wall 1.87 s
 Geometry Optimization Parameters
   NAtoms,    NIC,     NZ,  NCons,   NDum,   NFix, NCnnct, MaxDiis
       16     111       0       1       0       0       0       0

 Cartesian Hessian Update
 Hessian Updated using BFGS Update


** CONSTRAINED OPTIMIZATION IN DELOCALIZED INTERNAL COORDINATES **
   Searching for a Minimum

   Optimization Cycle:   8

                       Coordinates (Angstroms)
     ATOM                X               Y               Z
      1  S         1.6621665849    0.1645214923    1.1777505845
      2  C         3.1889008979    0.0150120076    0.3018766970
      3  C         2.9573166976   -0.1401431603   -1.0536603248
      4  C         1.5948025189   -0.1556784618   -1.4174163582
      5  C         0.7056753099    0.0160638662   -0.3289119662
      6  H         1.2419763555   -0.3136097792   -2.4308906887
      7  C        -0.7056753099   -0.0160638662   -0.3289119662
      8  S        -1.6621665849   -0.1645214923    1.1777505845
      9  C        -1.5948025189    0.1556784618   -1.4174163582
     10  C        -3.1889008979   -0.0150120076    0.3018766970
     11  C        -2.9573166976    0.1401431603   -1.0536603248
     12  H        -3.7640566198    0.2590319611   -1.7734039677
     13  H         4.1277265192    0.0238881587    0.8375551050
     14  H         3.7640566198   -0.2590319611   -1.7734039677
     15  H        -4.1277265192   -0.0238881587    0.8375551050
     16  H        -1.2419763555    0.3136097792   -2.4308906887
   Point Group: c2    Number of degrees of freedom:    22


   Energy is  -1104.843644974

              Constraints and their Current Values
                                        Value     Constraint
   Dihedral:        4   5   7   9      -20.000      -20.000
 Hessian Updated using BFGS Update

 21 Hessian modes will be used to form the next step
  Hessian Eigenvalues:
     0.008220    0.015324    0.042093    0.045000    0.045084    0.050531
     0.159966    0.160110    0.160460    0.222415    0.233958    0.254282
     0.279116    0.284769    0.351061    0.354470    0.358981    0.419462
     0.429861    0.462059    0.472177

 Minimum Search - Taking Simple RFO Step
 Searching for Lamda that Minimizes Along All modes
 Value Taken    Lamda =   0.00000000
 Step Taken.  Stepsize is  0.005999

                             Maximum     Tolerance    Cnvgd?
         Gradient           0.000082      0.000300     YES
         Displacement       0.003523      0.001200      NO
         Energy change     -0.000001      0.000001     YES

 Final energy is   -1104.84364497389     


 ******************************
 **  OPTIMIZATION CONVERGED  **
 ******************************

                       Coordinates (Angstroms)
     ATOM                X               Y               Z
      1  S         1.6621665849    0.1645214923    1.1777505845
      2  C         3.1889008979    0.0150120076    0.3018766970
      3  C         2.9573166976   -0.1401431603   -1.0536603248
      4  C         1.5948025189   -0.1556784618   -1.4174163582
      5  C         0.7056753099    0.0160638662   -0.3289119662
      6  H         1.2419763555   -0.3136097792   -2.4308906887
      7  C        -0.7056753099   -0.0160638662   -0.3289119662
      8  S        -1.6621665849   -0.1645214923    1.1777505845
      9  C        -1.5948025189    0.1556784618   -1.4174163582
     10  C        -3.1889008979   -0.0150120076    0.3018766970
     11  C        -2.9573166976    0.1401431603   -1.0536603248
     12  H        -3.7640566198    0.2590319611   -1.7734039677
     13  H         4.1277265192    0.0238881587    0.8375551050
     14  H         3.7640566198   -0.2590319611   -1.7734039677
     15  H        -4.1277265192   -0.0238881587    0.8375551050
     16  H        -1.2419763555    0.3136097792   -2.4308906887

Z-matrix Print:
$molecule
-1 2
S 
C  1 1.766473
H  2 1.080936 1 120.281090
C  2 1.383902 1 110.519601 3 -178.321917 0
H  4 1.087656 2 122.432731 1 179.430746 0
C  4 1.410321 2 114.553438 1 0.536778 0
H  6 1.084693 4 123.837868 2 177.123518 0
C  6 1.415939 4 114.019041 2 -1.124969 0
C  8 1.411716 6 128.683550 4 176.510503 0
C  9 1.415939 8 128.683550 6 19.999984 0
H  10 1.084693 9 122.119107 8 -1.771762 0
C  10 1.410321 9 114.019041 8 176.510503 0
H  12 1.087656 10 123.004058 9 179.988171 0
C  12 1.383902 10 114.553438 9 -1.124969 0
H  14 1.080936 12 129.173669 10 -177.593881 0
S  14 1.766473 12 110.519601 10 0.536778 0
$end

 
 --------------------------------------------------------------
             Orbital Energies (a.u.) and Symmetries
 --------------------------------------------------------------
 
 Alpha MOs, Unrestricted
 -- Occupied --                  
-88.751 -88.751 -10.065 -10.064 -10.056 -10.056 -10.049 -10.049
  1 B     1 A     2 A     2 B     3 B     3 A     4 B     4 A                  
-10.033 -10.033  -7.810  -7.810  -5.774  -5.774  -5.771  -5.771
  5 B     5 A     6 B     6 A     7 B     7 A     8 B     8 A                  
 -5.767  -5.767  -0.724  -0.702  -0.605  -0.582  -0.571  -0.535
  9 A     9 B    10 A    10 B    11 A    12 A    11 B    12 B                  
 -0.447  -0.415  -0.393  -0.368  -0.364  -0.315  -0.262  -0.254
 13 A    14 A    13 B    14 B    15 A    15 B    16 A    17 A                  
 -0.245  -0.240  -0.239  -0.209  -0.208  -0.197  -0.176  -0.126
 16 B    17 B    18 A    19 A    18 B    20 A    19 B    20 B                  
 -0.110  -0.101  -0.051   0.048
 21 B    21 A    22 A    22 B                                                  
 -- Virtual --                   
  0.093   0.096   0.109   0.115   0.125   0.144   0.147   0.149
 23 A    23 B    24 A    24 B    25 A    26 A    25 B    27 A                  
  0.151   0.160   0.165   0.171   0.176   0.177   0.184   0.198
 28 A    26 B    29 A    27 B    28 B    30 A    29 B    30 B                  
  0.205   0.207   0.208   0.213   0.217   0.227   0.228   0.233
 31 A    32 A    31 B    32 B    33 A    33 B    34 A    35 A                  
  0.234   0.234   0.241   0.249   0.256   0.259   0.261   0.269
 34 B    36 A    37 A    35 B    38 A    39 A    36 B    40 A                  
  0.276   0.279   0.281   0.285   0.296   0.301   0.306   0.312
 37 B    41 A    38 B    39 B    40 B    41 B    42 A    42 B                  
  0.314   0.318   0.326   0.329   0.337   0.341   0.351   0.362
 43 A    44 A    45 A    46 A    43 B    44 B    45 B    47 A                  
  0.367   0.394   0.396   0.401   0.413   0.436   0.441   0.450
 46 B    47 B    48 A    49 A    48 B    50 A    51 A    49 B                  
  0.451   0.454   0.477   0.481   0.496   0.520   0.522   0.585
 50 B    52 A    51 B    53 A    52 B    54 A    53 B    54 B                  
  0.585   0.609   0.646   0.683   0.697   0.705   0.711   0.738
 55 A    56 A    55 B    57 A    56 B    57 B    58 A    58 B                  
  0.748   0.763   0.795   0.805   0.814   0.826   0.831   0.833
 59 A    60 A    59 B    61 A    60 B    62 A    63 A    61 B                  
  0.861   0.861   0.870   0.872   0.882   0.908   0.912   0.938
 62 B    64 A    65 A    63 B    64 B    66 A    65 B    67 A                  
  0.956   0.976   0.986   1.002   1.032   1.068   1.079   1.101
 66 B    67 B    68 A    68 B    69 A    69 B    70 A    71 A                  
  1.105   1.114   1.118   1.130   1.144   1.152   1.155   1.160
 70 B    72 A    71 B    73 A    72 B    73 B    74 A    74 B                  
  1.179   1.184   1.229   1.235   1.255   1.258   1.280   1.312
 75 A    76 A    75 B    77 A    76 B    78 A    77 B    79 A                  
  1.338   1.340   1.378   1.396   1.412   1.499   1.499   1.511
 80 A    78 B    79 B    81 A    80 B    82 A    81 B    83 A                  
  1.515   1.525   1.539   1.611   1.647   1.667   1.720   1.767
 82 B    83 B    84 A    84 B    85 A    85 B    86 A    86 B                  
  1.787   1.844   1.858   1.968   1.992   2.032   2.056   2.072
 87 B    87 A    88 B    88 A    89 A    90 A    89 B    90 B                  
  2.087   2.141   2.147   2.156   2.158   2.215   2.222   2.278
 91 A    91 B    92 A    92 B    93 A    94 A    93 B    94 B                  
  2.280   2.301   2.310   2.384   2.414   2.440   2.442   2.515
 95 A    96 A    95 B    96 B    97 A    97 B    98 A    98 B                  
  2.516   2.568   2.599   2.619   2.624   2.667   2.671   2.684
 99 A    99 B   100 A   101 A   100 B   102 A   101 B   102 B                  
  2.691   2.727   2.733   2.751   2.836   2.841   2.874   2.912
103 A   104 A   105 A   103 B   104 B   105 B   106 A   107 A                  
  2.964   3.001   3.088   3.140   3.288   3.370   3.418   3.420
106 B   108 A   107 B   108 B   109 A   109 B   110 A   110 B                  
  3.549   3.584   3.855   3.900   4.100   4.174   4.405   4.455
111 A   111 B   112 A   112 B   113 A   113 B   114 A   115 A                  
  4.484   4.496   4.567   4.696   4.800   4.888
114 B   115 B   116 A   116 B   117 A   117 B                                  
 
 Beta MOs, Unrestricted
 -- Occupied --                  
-88.750 -88.750 -10.063 -10.063 -10.053 -10.053 -10.049 -10.049
  1 B     1 A     2 A     2 B     3 B     3 A     4 B     4 A                  
-10.031 -10.031  -7.809  -7.809  -5.774  -5.774  -5.770  -5.770
  5 B     5 A     6 B     6 A     7 B     7 A     8 B     8 A                  
 -5.765  -5.765  -0.720  -0.699  -0.600  -0.578  -0.568  -0.531
  9 A     9 B    10 A    10 B    11 A    12 A    11 B    12 B                  
 -0.440  -0.413  -0.390  -0.366  -0.362  -0.313  -0.260  -0.252
 13 A    14 A    13 B    14 B    15 A    15 B    16 A    17 A                  
 -0.243  -0.237  -0.230  -0.206  -0.200  -0.194  -0.174  -0.111
 16 B    18 A    17 B    18 B    19 A    20 A    19 B    20 B                  
 -0.100  -0.093  -0.032
 21 B    21 A    22 A                                                          
 -- Virtual --                   
  0.093   0.096   0.101   0.108   0.114   0.124   0.147   0.147
 23 A    22 B    23 B    24 A    24 B    25 A    25 B    26 A                  
  0.151   0.160   0.161   0.166   0.175   0.177   0.177   0.184
 27 A    28 A    26 B    29 A    27 B    28 B    30 A    29 B                  
  0.198   0.205   0.210   0.210   0.215   0.217   0.228   0.229
 30 B    31 A    32 A    31 B    32 B    33 A    33 B    34 A                  
  0.234   0.234   0.236   0.242   0.251   0.256   0.262   0.263
 35 A    34 B    36 A    37 A    35 B    38 A    36 B    39 A                  
  0.270   0.279   0.281   0.282   0.286   0.296   0.301   0.309
 40 A    37 B    38 B    41 A    39 B    40 B    41 B    42 A                  
  0.314   0.314   0.319   0.327   0.330   0.338   0.341   0.352
 43 A    42 B    44 A    45 A    46 A    43 B    44 B    45 B                  
  0.362   0.367   0.395   0.396   0.401   0.414   0.439   0.443
 47 A    46 B    47 B    48 A    49 A    48 B    50 A    51 A                  
  0.452   0.452   0.455   0.479   0.482   0.496   0.521   0.525
 49 B    50 B    52 A    51 B    53 A    52 B    54 A    53 B                  
  0.587   0.587   0.611   0.648   0.686   0.700   0.706   0.713
 54 B    55 A    56 A    55 B    57 A    56 B    57 B    58 A                  
  0.740   0.749   0.764   0.799   0.816   0.820   0.831   0.833
 58 B    59 A    60 A    59 B    61 A    60 B    62 A    63 A                  
  0.841   0.862   0.865   0.873   0.879   0.882   0.913   0.915
 61 B    64 A    62 B    65 A    63 B    64 B    65 B    66 A                  
  0.939   0.958   0.983   0.994   1.008   1.034   1.069   1.082
 67 A    66 B    67 B    68 A    68 B    69 A    69 B    70 A                  
  1.101   1.108   1.118   1.118   1.131   1.145   1.153   1.157
 71 A    70 B    72 A    71 B    73 A    72 B    73 B    74 A                  
  1.161   1.182   1.187   1.231   1.237   1.259   1.260   1.284
 74 B    75 A    76 A    75 B    77 A    76 B    78 A    77 B                  
  1.317   1.339   1.342   1.380   1.399   1.417   1.502   1.503
 79 A    80 A    78 B    79 B    81 A    80 B    81 B    82 A                  
  1.515   1.518   1.531   1.542   1.612   1.649   1.670   1.726
 83 A    82 B    83 B    84 A    84 B    85 A    85 B    86 A                  
  1.773   1.792   1.855   1.868   1.973   1.994   2.036   2.057
 86 B    87 B    87 A    88 B    88 A    89 A    90 A    89 B                  
  2.073   2.089   2.146   2.151   2.160   2.160   2.218   2.224
 90 B    91 A    91 B    92 A    92 B    93 A    94 A    93 B                  
  2.285   2.288   2.311   2.316   2.392   2.418   2.444   2.445
 94 B    95 A    96 A    95 B    96 B    97 A    97 B    98 A                  
  2.517   2.518   2.573   2.601   2.622   2.624   2.670   2.676
 98 B    99 A    99 B   100 A   101 A   100 B   102 A   101 B                  
  2.685   2.695   2.730   2.738   2.755   2.839   2.842   2.878
102 B   103 A   104 A   105 A   103 B   104 B   105 B   106 A                  
  2.913   2.967   3.003   3.091   3.142   3.289   3.371   3.418
107 A   106 B   108 A   107 B   108 B   109 A   109 B   110 A                  
  3.420   3.550   3.586   3.856   3.901   4.101   4.176   4.410
110 B   111 A   111 B   112 A   112 B   113 A   113 B   114 A                  
  4.456   4.488   4.498   4.573   4.701   4.802   4.891
115 A   114 B   115 B   116 A   116 B   117 A   117 B                          
 --------------------------------------------------------------
 
          Ground-State Mulliken Net Atomic Charges

     Atom                 Charge (a.u.)    Spin (a.u.)
  --------------------------------------------------------
      1 S                    -0.299741       0.107827
      2 C                    -0.132610       0.240731
      3 C                    -0.371893      -0.069041
      4 C                     0.132033       0.229220
      5 C                    -0.120534       0.011265
      6 H                     0.079710      -0.009029
      7 C                    -0.120534       0.011265
      8 S                    -0.299741       0.107827
      9 C                     0.132033       0.229220
     10 C                    -0.132610       0.240731
     11 C                    -0.371893      -0.069041
     12 H                     0.068433       0.004080
     13 H                     0.144602      -0.015054
     14 H                     0.068433       0.004080
     15 H                     0.144602      -0.015054
     16 H                     0.079710      -0.009029
  --------------------------------------------------------
  Sum of atomic charges =    -1.000000
  Sum of spin   charges =     1.000000

 -----------------------------------------------------------------
                    Cartesian Multipole Moments
 -----------------------------------------------------------------
    Charge (ESU x 10^10)
                -4.8032
    Dipole Moment (Debye)
         X      -0.0000      Y      -0.0000      Z      -0.4229
       Tot       0.4229
    Quadrupole Moments (Debye-Ang)
        XX     -99.3054     XY      -0.8314     YY     -87.1494
        XZ      -0.0000     YZ       0.0000     ZZ     -83.4963
    Octopole Moments (Debye-Ang^2)
       XXX      -0.0000    XXY       0.0000    XYY      -0.0000
       YYY      -0.0000    XXZ       8.2609    XYZ       2.1414
       YYZ       3.5785    XZZ      -0.0000    YZZ      -0.0000
       ZZZ      -2.0182
    Hexadecapole Moments (Debye-Ang^3)
      XXXX   -2480.4982   XXXY      -8.8095   XXYY    -489.6735
      XYYY       5.4216   YYYY    -151.3763   XXXZ      -0.0000
      XXYZ       0.0000   XYYZ      -0.0000   YYYZ       0.0000
      XXZZ    -504.1364   XYZZ      -3.1649   YYZZ    -155.7698
      XZZZ       0.0000   YZZZ       0.0000   ZZZZ    -675.8944
 -----------------------------------------------------------------
Archival summary:
1\1\nid01047\OPT\ProcedureUnspecified\BasisUnspecified\286(1-,2)\WedSep700:23:292016WedSep700:23:292016\0\\#,OPT,ProcedureUnspecified,BasisUnspecified,\\-1,2\S\C,1,1.76647\H,2,1.08094,1,120.281\C,2,1.3839,1,110.52,3,-178.322,0\H,4,1.08766,2,122.433,1,179.431,0\C,4,1.41032,2,114.553,1,0.536778,0\H,6,1.08469,4,123.838,2,177.124,0\C,6,1.41594,4,114.019,2,-1.12497,0\C,8,1.41172,6,128.684,4,176.511,0\C,9,1.41594,8,128.684,6,20,0\H,10,1.08469,9,122.119,8,-1.77176,0\C,10,1.41032,9,114.019,8,176.511,0\H,12,1.08766,10,123.004,9,179.988,0\C,12,1.3839,10,114.553,9,-1.12497,0\H,14,1.08094,12,129.174,10,-177.594,0\S,14,1.76647,12,110.52,10,0.536778,0\\\@

 Total job time:  148.04s(wall), 163.32s(cpu) 
 Wed Sep  7 00:23:29 2016

        *************************************************************
        *                                                           *
        *  Thank you very much for using Q-Chem.  Have a nice day.  *
        *                                                           *
        *************************************************************


0 sent ACK to 0 
now end server 0 ... 
