srun -N 1 --ntasks-per-node 16 --nodelist nid01047 /global/project/projectdirs/jcesr/qchem/qc44/cnl_qc441/dist/exe/qcprog.cori.exe .pt_charged_dft_-150.0.in.31302.qcin.1 /dev/shm/eg_qchem/qchem31302/
Process 0 of 16 is on nid01047 - thread support 0
Process 1 of 16 is on nid01047 - thread support 0
Process 2 of 16 is on nid01047 - thread support 0
Process 3 of 16 is on nid01047 - thread support 0
Process 4 of 16 is on nid01047 - thread support 0
Process 5 of 16 is on nid01047 - thread support 0
Process 6 of 16 is on nid01047 - thread support 0
Process 15 of 16 is on nid01047 - thread support 0
initial socket setup ...start
initial socket setup ...done 
now start server 0 ... 
nid01047 10.128.4
Q-Chem Developer Version! Running on 10.128.4.*
                  Welcome to Q-Chem
     A Quantum Leap Into The Future Of Chemistry


 Q-Chem 4.4, Q-Chem, Inc., Pleasanton, CA (2016)

 Y. Shao,  Z. Gan,  E. Epifanovsky,  A. T. B. Gilbert,  M. Wormit,  
 J. Kussmann,  A. W. Lange,  A. Behn,  J. Deng,  X. Feng,  D. Ghosh,  
 M. Goldey,  P. R. Horn,  L. D. Jacobson,  I. Kaliman,  F.Rob,  
 R. Z. Khaliullin,  T. Kus,  A. Landau,  J. Liu,  E. I. Proynov,  Y. M. Rhee,  
 R. M. Richard,  M. A. Rohrdanz,  R. P. Steele,  E. J. Sundstrom,  
 H. L. Woodcock III,  P. M. Zimmerman,  D. Zuev,  B. Albrecht,  E. Alguire,  
 B. Austin,  S. A. Baeppler,  G. J. O. Beran,  Y. A. Bernard,  E. Berquist,  
 K. Brandhorst,  K. B. Bravaya,  S. T. Brown,  D. Casanova,  C.-M. Chang,  
 Y. Chen,  S. H. Chien,  K. D. Closser,  M. P. Coons,  D. L. Crittenden,  
 S. Dasgupta,  M. Diedenhofen,  R. A. DiStasio Jr.,  H. Do,  A. D. Dutoi,  
 R. G. Edgar,  P.-T. Fang,  S. Fatehi,  Q. Feng,  L. Fusti-Molnar,  
 A. Ghysels,  A. Golubeva-Zadorozhnaya,  J. Gomes,  A. Gunina,  
 M. W. D. Hanson-Heine,  P. H. P. Harbach,  A. W. Hauser,  E. G. Hohenstein,  
 Z. C. Holden,  K. Hui,  T.-C. Jagau,  H. Ji,  B. Kaduk,  K. Khistyaev,  
 Jaehoon Kim,  Jihan Kim,  R. A. King,  P. Klunzinger,  D. Kosenkov,  
 T. Kowalczyk,  C. M. Krauter,  A. Kunitsa,  K. U. Lao,  A. Laurent,  
 K. V. Lawler,  D. Lefrancois,  S. Lehtola,  S. V. Levchenko,  C. Y. Lin,  
 Y.-S. Lin,  F. Liu,  E. Livshits,  R. C. Lochan,  A. Luenser,  P. Manohar,  
 S. F. Manzer,  S.-P. Mao,  Y. Mao,  N. Mardirossian,  A. V. Marenich,  
 L. A. Martinez-Martinez,  S. A. Maurer,  N. J. Mayhall,  J.-M. Mewes,  
 A. F. Morrison,  K. Nanda,  C. M. Oana,  R. Olivares-Amaya,  D. P. O'Neill,  
 J. A. Parkhill,  T. M. Perrine,  R. Peverati,  P. A. Pieniazek,  F. Plasser,  
 A. Prociuk,  D. R. Rehn,  E. Rosta,  N. J. Russ,  N. Sergueev,  
 S. M. Sharada,  S. Sharma,  D. W. Small,  A. Sodt,  T. Stauch,  T. Stein,  
 D. Stuck,  Y.-C. Su,  A. J. W. Thom,  T. Tsuchimochi,  L. Vogt,  O. Vydrov,  
 T. Wang,  M. A. Watson,  J. Wenzel,  A. White,  C. F. Williams,  
 V. Vanovschi,  S. Yeganeh,  S. R. Yost,  Z.-Q. You,  I. Y. Zhang,  X. Zhang,  
 Y. Zhao,  B. R. Brooks,  G. K. L. Chan,  D. M. Chipman,  C. J. Cramer,  
 W. A. Goddard III,  M. S. Gordon,  W. J. Hehre,  A. Klamt,  
 H. F. Schaefer III,  M. W. Schmidt,  C. D. Sherrill,  D. G. Truhlar,  
 A. Warshel,  X. Xu,  A. Aspuru-Guzik,  R. Baer,  A. T. Bell,  N. A. Besley,  
 J.-D. Chai,  A. Dreuw,  B. D. Dunietz,  T. R. Furlani,  S. R. Gwaltney,  
 C.-P. Hsu,  Y. Jung,  J. Kong,  D. S. Lambrecht,  W. Liang,  C. Ochsenfeld,  
 V. A. Rassolov,  L. V. Slipchenko,  J. E. Subotnik,  T. Van Voorhis,  
 J. M. Herbert,  A. I. Krylov,  P. M. W. Gill,  M. Head-Gordon

 Contributors to earlier versions of Q-Chem not listed above: 
 R. D. Adamson,  J. Baker,  E. F. C. Byrd,  A. K. Chakraborty,  C.-L. Cheng,  
 H. Dachsel,  R. J. Doerksen,  G. Hawkins,  A. Heyden,  S. Hirata,  
 G. Kedziora,  F. J. Keil,  C. Kelley,  P. P. Korambath,  W. Kurlancheek,  
 A. M. Lee,  M. S. Lee,  D. Liotard,  I. Lotan,  P. E. Maslen,  N. Nair,  
 D. Neuhauser,  R. Olson,  B. Peters,  J. Ritchie,  N. E. Schultz,  
 N. Shenvi,  A. C. Simmonett,  K. S. Thanthiriwatte,  Q. Wu,  W. Zhang

 Please cite Q-Chem as follows:
 Y. Shao et al., Mol. Phys. 113, 184-215 (2015)
 DOI: 10.1080/00268976.2014.952696

 Q-Chem 4.4.1 for Intel X86 EM64T Linux

 Parts of Q-Chem use Armadillo 5.200.1 (Boston Tea Smuggler).
 http://arma.sourceforge.net/

 Q-Chem begins on Wed Sep  7 00:15:59 2016  

Host: nid01047
0

     Scratch files written to /dev/shm/eg_qchem/qchem31302.0//
 Parallel job on  16  processors

Checking the input file for inconsistencies... 	...done.

--------------------------------------------------------------
User input:
--------------------------------------------------------------
$comment
<SCF Fix Strategy>{
    "current_method_id": 1, 
    "methods": [
        "increase_iter", 
        "rca_diis", 
        "gwh", 
        "gdm", 
        "rca", 
        "core+rca", 
        "fon"
    ], 
    "version": 2.0
}</SCF Fix Strategy>
$end


$molecule
 -1  2
 S           1.83794975       -1.27576249       -0.14871336
 C           3.23937819       -0.19806434       -0.14823333
 C           2.83626844        1.12431397       -0.14890172
 C           1.43724334        1.31134696       -0.14931220
 C           0.69606563        0.10654716       -0.14908151
 H           0.95807640        2.28459073       -0.14860036
 C          -0.69610330       -0.10652413       -0.14907621
 S          -1.80677264        1.07181424       -0.91888901
 C          -1.45916212       -1.16834304        0.39052441
 C          -3.22555826        0.10753568       -0.49151400
 C          -2.85016946       -1.03370166        0.19247644
 H          -3.57257607       -1.76527757        0.54700264
 H           4.24016475       -0.60708034       -0.14954918
 H           3.54430111        1.94981573       -0.14910914
 H          -4.21496511        0.44219161       -0.77070761
 H          -1.00104875       -2.00401353        0.90878290
$end


$rem
         jobtype = opt
        exchange = b3lyp
           basis = 6-31++g**
  max_scf_cycles = 200
      mem_static = 100
       mem_total = 1500
   scf_algorithm = rca_diis
       scf_guess = sad
$end


$opt
CONSTRAINT
tors 4 5 7 9 -150.0
ENDCONSTRAINT
$end

--------------------------------------------------------------
 Atom   8: ( -1.8486132156,  1.1957012104, -0.3027074966)
         ->( -1.8486131459,  1.1957012165, -0.3027074408)
 Atom  10: ( -3.2381972011,  0.1254511678, -0.0812207718)
         ->( -3.2381971899,  0.1254511737, -0.0812210170)
 Atom  11: ( -2.8225738132, -1.1447111305,  0.2725125667)
         ->( -2.8225738859, -1.1447110572,  0.2725126232)
 Atom   9: ( -1.4230765460, -1.2970025611,  0.3748230691)
         ->( -1.4230766223, -1.2970026033,  0.3748230942)
 Atom   7: ( -0.6943666241, -0.1172109281,  0.0956089184)
         ->( -0.6943666313, -0.1172110198,  0.0956088795)
 Atom  16: ( -0.9349300554, -2.2277779960,  0.6434770910)
         ->( -0.9349301681, -2.2277780810,  0.6434770507)
 Atom  14: (  3.5218662089,  1.9571832477,  0.4559319439)
         ->(  3.5218660584,  1.9571834163,  0.4559317300)
 Atom  15: ( -4.2419325355,  0.5000159572, -0.2264315674)
         ->( -4.2419325179,  0.5000161045, -0.2264314241)
 ----------------------------------------------------------------
             Standard Nuclear Orientation (Angstroms)
    I     Atom           X                Y                Z
 ----------------------------------------------------------------
    1      S       1.8486131459    -1.1957012165    -0.3027074408
    2      C       3.2381971899    -0.1254511737    -0.0812210170
    3      C       2.8225738859     1.1447110572     0.2725126232
    4      C       1.4230766223     1.2970026033     0.3748230942
    5      C       0.6943666313     0.1172110198     0.0956088795
    6      H       0.9349301681     2.2277780810     0.6434770507
    7      C      -0.6943666313    -0.1172110198     0.0956088795
    8      S      -1.8486131459     1.1957012165    -0.3027074408
    9      C      -1.4230766223    -1.2970026033     0.3748230942
   10      C      -3.2381971899     0.1254511737    -0.0812210170
   11      C      -2.8225738859    -1.1447110572     0.2725126232
   12      H      -3.5218660584    -1.9571834163     0.4559317300
   13      H       4.2419325179    -0.5000161045    -0.2264314241
   14      H       3.5218660584     1.9571834163     0.4559317300
   15      H      -4.2419325179     0.5000161045    -0.2264314241
   16      H      -0.9349301681    -2.2277780810     0.6434770507
 ----------------------------------------------------------------
 Molecular Point Group                 C2    NOp =  2
 Largest Abelian Subgroup              C2    NOp =  2
 Nuclear Repulsion Energy =   623.3248603181 hartrees
 There are       44 alpha and       43 beta electrons
 Requested basis set is 6-31++G(d,p)
 There are 76 shells and 234 basis functions

 Total QAlloc Memory Limit   1500 MB
 Mega-Array Size        98 MB
 MEM_STATIC part       100 MB
 A cutoff of  1.0D-12 yielded   2527 shell pairs
 There are     24881 function pairs
 
 -------------------------------------------------------
 OpenMP Integral Computing Module                       
 Release: version 1.0, May 2013, Q-Chem Inc. Pittsburgh 
 -------------------------------------------------------
 Integral Job Info:
 Integral job number is                      11
 Integral operator is                         1
 short-range coefficients                     0
 long-range coefficients              100000000
 Omega coefficients                           0
 if combine SR and LR in K                    0
 Integral screening is                        0
 Integral computing path is                   2
 max size of driver memory is            800000
 size of driver memory is                593474
 size of scratch memory is             15166112
 max col of scratch BK array               1296
 max len of scratch array in speh3          155
 max len of scratch index in speh4           18
 max int batch size is                      520
 min int batch size is                       52
 fixed nKL is                                52
 max L of basis functions is                  2
 order of int derivative is                   0
 number of shells is                         76
 number of basis is                         234
 number of cartesian basis is               234
 number of contracted shell pairs          2527
 number of primitive shell pairs           8235
 maxK2 (contraction) of shell pair           36
 max number of K2 of shell pair               1
 max number of CS2 of shell pair            268
 max number of PS2 of shell pair           1536
 mem total for path MDJ                   51992
 -------------------------------------------------------
 Smallest overlap matrix eigenvalue = 8.70E-07
 Linear dependence detected in AO basis
 Number of orthogonalized atomic orbitals = 233
 Maximum deviation from orthogonality = 1.056E-10

 Scale SEOQF with 1.000000e-01/1.000000e-01/1.000000e-01

 Standard Electronic Orientation quadrupole field applied
 Nucleus-field energy     =     0.0000000215 hartrees
 Guess from superposition of atomic densities
 Warning:  Energy on first SCF cycle will be non-variational
 An unrestricted hybrid HF-DFT SCF calculation will be
 performed using Relaxed Constraint Minimization + Pulay DIIS
 Exchange:     0.2000 Hartree-Fock + 0.0800 Slater + 0.7200 B88
 Correlation:  0.1900 VWN1RPA + 0.8100 LYP
 Using SG-1 standard quadrature grid
 SCF converges when DIIS error is below 1.0E-08
 Inaccurate integrated density:
   Number of electrons =    87
   Numerical integral  =    85.999852547530
   Relative error      =    -1.1495947730 %
 Inaccurate integrated density:
   Number of electrons =    87
   Numerical integral  =    85.999852547530
   Relative error      =    -1.1495947730 %
 ---------------------------------------
  Cycle       Energy         DIIS Error
 ---------------------------------------
    1   -1106.9941730313      4.29E-02
    2   -1108.3872107802      9.55E-02
 Inaccurate integrated density:
   Number of electrons =    87
   Numerical integral  =    86.987785997105
   Relative error      =    -0.0140390838 %
    3   -1136.8564167487      4.77E-02
    4   -1144.7255787606      2.97E-02
Recomputing EXC -1142.362014 -1151.331207 -1144.725579 
Recomputing EXC -1144.471347 -1145.898296 -1144.725579 
Recomputing EXC -1144.683737 -1144.944958 -1144.725579 
    5   -1144.6837365104      2.95E-02
Recomputing EXC -1142.096197 -1151.176266 -1144.683737 
Recomputing EXC -1144.206892 -1145.811968 -1144.683737 
Recomputing EXC -1144.420382 -1144.874591 -1144.683737 
    6   -1144.4203817645      2.94E-02
Recomputing EXC -1141.247723 -1150.485487 -1144.420382 
Recomputing EXC -1143.854856 -1145.410780 -1144.420382 
Recomputing EXC -1144.145137 -1144.576370 -1144.420382 
    7   -1144.1451369617      2.94E-02
Recomputing EXC -1140.350045 -1149.767850 -1144.145137 
Recomputing EXC -1143.500202 -1145.000325 -1144.145137 
Recomputing EXC -1143.861809 -1144.269253 -1144.145137 
    8   -1143.8618093543      2.95E-02
Recomputing EXC -1139.301331 -1148.953897 -1143.861809 
Recomputing EXC -1143.140338 -1144.566042 -1143.861809 
Recomputing EXC -1143.574085 -1143.953388 -1143.861809 
    9   -1143.5740853458      2.97E-02
Recomputing EXC -1137.743478 -1147.791532 -1143.574085 
Recomputing EXC -1142.777244 -1144.059988 -1143.574085 
Recomputing EXC -1143.289835 -1143.625162 -1143.574085 
   10   -1143.2898349513      2.99E-02
Recomputing EXC -1134.092909 -1145.111695 -1143.289835 
Recomputing EXC -1142.623924 -1143.382595 -1143.289835 
Recomputing EXC -1143.047549 -1143.293406 -1143.289835 
   11   -1143.0475490131      3.00E-02
Recomputing EXC -1132.544500 -1143.933592 -1143.047549 
Recomputing EXC -1142.569558 -1143.069676 -1143.047549 
Recomputing EXC -1142.818457 -1143.047870 -1143.047549 
   12   -1142.8184572348      3.01E-02
Recomputing EXC -1137.967787 -1147.676402 -1142.818457 
Recomputing EXC -1142.080985 -1143.463815 -1142.818457 
Recomputing EXC -1142.531522 -1142.898712 -1142.818457 
   13   -1142.5315222272      3.01E-02
Recomputing EXC -1139.309674 -1148.478514 -1142.531522 
Recomputing EXC -1141.967283 -1143.495102 -1142.531522 
Recomputing EXC -1142.257314 -1142.682230 -1142.531522 
   14   -1142.2573141031      3.01E-02
 Inaccurate integrated density:
   Number of electrons =    87
   Numerical integral  =    86.989955515837
   Relative error      =    -0.0115453841 %
 Inaccurate integrated density:
   Number of electrons =    87
   Numerical integral  =    86.989955515835
   Relative error      =    -0.0115453841 %
   15   -2148.9705857699      1.63E+00
 Inaccurate integrated density:
   Number of electrons =    87
   Numerical integral  =    86.950960610083
   Relative error      =    -0.0563671148 %
 Inaccurate integrated density:
   Number of electrons =    87
   Numerical integral  =    86.988643210723
   Relative error      =    -0.0130537808 %
Recomputing EXC -2116.293708 -2153.091180 -2148.970586 
 Inaccurate integrated density:
   Number of electrons =    87
   Numerical integral  =    86.989909313102
   Relative error      =    -0.0115984907 %
Recomputing EXC -2147.826375 -2149.115507 -2148.970586 
 Inaccurate integrated density:
   Number of electrons =    87
   Numerical integral  =    86.989953886637
   Relative error      =    -0.0115472567 %
Recomputing EXC -2148.930246 -2148.975696 -2148.970586 
   16   -2148.9302460946      1.63E+00
 Inaccurate integrated density:
   Number of electrons =    87
   Numerical integral  =    86.950962180842
   Relative error      =    -0.0563653094 %
 Inaccurate integrated density:
   Number of electrons =    87
   Numerical integral  =    86.988641757773
   Relative error      =    -0.0130554508 %
Recomputing EXC -2116.204477 -2153.050230 -2148.930246 
 Inaccurate integrated density:
   Number of electrons =    87
   Numerical integral  =    86.989907759803
   Relative error      =    -0.0116002761 %
Recomputing EXC -2147.725745 -2149.074930 -2148.930246 
 Inaccurate integrated density:
   Number of electrons =    87
   Numerical integral  =    86.989952330335
   Relative error      =    -0.0115490456 %
Recomputing EXC -2148.829219 -2148.935130 -2148.930246 
   17   -2148.8292193575      1.63E+00
 Inaccurate integrated density:
   Number of electrons =    87
   Numerical integral  =    86.950673590445
   Relative error      =    -0.0566970225 %
 Inaccurate integrated density:
   Number of electrons =    87
   Numerical integral  =    86.988621187884
   Relative error      =    -0.0130790944 %
Recomputing EXC -2116.068679 -2152.986929 -2148.829219 
 Inaccurate integrated density:
   Number of electrons =    87
   Numerical integral  =    86.989905219773
   Relative error      =    -0.0116031957 %
Recomputing EXC -2147.615776 -2148.976212 -2148.829219 
 Inaccurate integrated density:
   Number of electrons =    87
   Numerical integral  =    86.989950729513
   Relative error      =    -0.0115508856 %
Recomputing EXC -2148.727589 -2148.834217 -2148.829219 
   18   -2148.7275888766      1.63E+00
 Inaccurate integrated density:
   Number of electrons =    87
   Numerical integral  =    86.950406047443
   Relative error      =    -0.0570045432 %
 Inaccurate integrated density:
   Number of electrons =    87
   Numerical integral  =    86.988600637876
   Relative error      =    -0.0131027151 %
Recomputing EXC -2115.928061 -2152.925227 -2148.727589 
 Inaccurate integrated density:
   Number of electrons =    87
   Numerical integral  =    86.989902614330
   Relative error      =    -0.0116061904 %
Recomputing EXC -2147.504686 -2148.877031 -2148.727589 
 Inaccurate integrated density:
   Number of electrons =    87
   Numerical integral  =    86.989949082506
   Relative error      =    -0.0115527787 %
Recomputing EXC -2148.625320 -2148.732707 -2148.727589 
   19   -2148.6253203908      1.63E+00
 Inaccurate integrated density:
   Number of electrons =    87
   Numerical integral  =    86.950158942588
   Relative error      =    -0.0572885717 %
 Inaccurate integrated density:
   Number of electrons =    87
   Numerical integral  =    86.988579932779
   Relative error      =    -0.0131265140 %
Recomputing EXC -2115.783101 -2152.865561 -2148.625320 
 Inaccurate integrated density:
   Number of electrons =    87
   Numerical integral  =    86.989899930152
   Relative error      =    -0.0116092757 %
Recomputing EXC -2147.392335 -2148.777387 -2148.625320 
 Inaccurate integrated density:
   Number of electrons =    87
   Numerical integral  =    86.989947386958
   Relative error      =    -0.0115547276 %
Recomputing EXC -2148.522371 -2148.630569 -2148.625320 
   20   -2148.5223712009      1.63E+00
 Inaccurate integrated density:
   Number of electrons =    87
   Numerical integral  =    86.949922842991
   Relative error      =    -0.0575599506 %
 Inaccurate integrated density:
   Number of electrons =    87
   Numerical integral  =    86.988558695763
   Relative error      =    -0.0131509244 %
Recomputing EXC -2115.634393 -2152.808044 -2148.522371 
 Inaccurate integrated density:
   Number of electrons =    87
   Numerical integral  =    86.989897148530
   Relative error      =    -0.0116124730 %
Recomputing EXC -2147.278656 -2148.677253 -2148.522371 
 Inaccurate integrated density:
   Number of electrons =    87
   Numerical integral  =    86.989945639847
   Relative error      =    -0.0115567358 %
Recomputing EXC -2148.418695 -2148.527760 -2148.522371 
   21   -2148.4186950555      1.63E+00
 Inaccurate integrated density:
   Number of electrons =    87
   Numerical integral  =    86.949679394282
   Relative error      =    -0.0578397767 %
 Inaccurate integrated density:
   Number of electrons =    87
   Numerical integral  =    86.988536412755
   Relative error      =    -0.0131765371 %
Recomputing EXC -2115.481924 -2152.752228 -2148.418695 
 Inaccurate integrated density:
   Number of electrons =    87
   Numerical integral  =    86.989894250810
   Relative error      =    -0.0116158037 %
Recomputing EXC -2147.163697 -2148.576560 -2148.418695 
 Inaccurate integrated density:
   Number of electrons =    87
   Numerical integral  =    86.989943837661
   Relative error      =    -0.0115588073 %
Recomputing EXC -2148.314252 -2148.424234 -2148.418695 
   22   -2148.3142516975      1.63E+00
 Inaccurate integrated density:
   Number of electrons =    87
   Numerical integral  =    86.949411929367
   Relative error      =    -0.0581472076 %
 Inaccurate integrated density:
   Number of electrons =    87
   Numerical integral  =    86.988512742352
   Relative error      =    -0.0132037444 %
Recomputing EXC -2115.324682 -2152.697267 -2148.314252 
 Inaccurate integrated density:
   Number of electrons =    87
   Numerical integral  =    86.989891229103
   Relative error      =    -0.0116192769 %
Recomputing EXC -2147.047601 -2148.475213 -2148.314252 
 Inaccurate integrated density:
   Number of electrons =    87
   Numerical integral  =    86.989941976974
   Relative error      =    -0.0115609460 %
Recomputing EXC -2148.209014 -2148.319947 -2148.314252 
   23   -2148.2090144820      1.63E+00
 Inaccurate integrated density:
   Number of electrons =    87
   Numerical integral  =    86.949117062083
   Relative error      =    -0.0584861355 %
 Inaccurate integrated density:
   Number of electrons =    87
   Numerical integral  =    86.988487744139
   Relative error      =    -0.0132324780 %
Recomputing EXC -2115.161119 -2152.642498 -2148.209014 
 Inaccurate integrated density:
   Number of electrons =    87
   Numerical integral  =    86.989888089618
   Relative error      =    -0.0116228855 %
Recomputing EXC -2146.930473 -2148.373135 -2148.209014 
 Inaccurate integrated density:
   Number of electrons =    87
   Numerical integral  =    86.989940054984
   Relative error      =    -0.0115631552 %
Recomputing EXC -2148.102968 -2148.214871 -2148.209014 
   24   -2148.1029683892      1.63E+00
 Inaccurate integrated density:
   Number of electrons =    87
   Numerical integral  =    86.948802922570
   Relative error      =    -0.0588472154 %
 Inaccurate integrated density:
   Number of electrons =    87
   Numerical integral  =    86.988461746779
   Relative error      =    -0.0132623600 %
Recomputing EXC -2114.989785 -2152.587698 -2148.102968 
 Inaccurate integrated density:
   Number of electrons =    87
   Numerical integral  =    86.989884845247
   Relative error      =    -0.0116266147 %
Recomputing EXC -2146.812333 -2148.270292 -2148.102968 
 Inaccurate integrated density:
   Number of electrons =    87
   Numerical integral  =    86.989938069529
   Relative error      =    -0.0115654373 %
Recomputing EXC -2147.996103 -2148.108989 -2148.102968 
   25   -2147.9961030519      1.63E+00
 Inaccurate integrated density:
   Number of electrons =    87
   Numerical integral  =    86.948480086565
   Relative error      =    -0.0592182913 %
 Inaccurate integrated density:
   Number of electrons =    87
   Numerical integral  =    86.988435133899
   Relative error      =    -0.0132929495 %
Recomputing EXC -2114.809414 -2152.532790 -2147.996103 
 Inaccurate integrated density:
   Number of electrons =    87
   Numerical integral  =    86.989881510559
   Relative error      =    -0.0116304476 %
Recomputing EXC -2146.693173 -2148.166664 -2147.996103 
 Inaccurate integrated density:
   Number of electrons =    87
   Numerical integral  =    86.989936019144
   Relative error      =    -0.0115677941 %
Recomputing EXC -2147.888410 -2148.002289 -2147.996103 
   26   -2147.8884104144      1.63E+00
 Inaccurate integrated density:
   Number of electrons =    87
   Numerical integral  =    86.948156654076
   Relative error      =    -0.0595900528 %
 Inaccurate integrated density:
   Number of electrons =    87
   Numerical integral  =    86.988408356684
   Relative error      =    -0.0133237279 %
Recomputing EXC -2114.618714 -2152.477277 -2147.888410 
 Inaccurate integrated density:
   Number of electrons =    87
   Numerical integral  =    86.989878108369
   Relative error      =    -0.0116343582 %
Recomputing EXC -2146.573081 -2148.062202 -2147.888410 
 Inaccurate integrated density:
   Number of electrons =    87
   Numerical integral  =    86.989933903523
   Relative error      =    -0.0115702258 %
Recomputing EXC -2147.779892 -2147.894763 -2147.888410 
   27   -2147.7798919305      1.63E+00
 Inaccurate integrated density:
   Number of electrons =    87
   Numerical integral  =    86.947838130568
   Relative error      =    -0.0599561718 %
 Inaccurate integrated density:
   Number of electrons =    87
   Numerical integral  =    86.988382154351
   Relative error      =    -0.0133538456 %
Recomputing EXC -2114.416478 -2152.419587 -2147.779892 
 Inaccurate integrated density:
   Number of electrons =    87
   Numerical integral  =    86.989874685599
   Relative error      =    -0.0116382924 %
Recomputing EXC -2146.452401 -2147.956790 -2147.779892 
 Inaccurate integrated density:
   Number of electrons =    87
   Numerical integral  =    86.989931724850
   Relative error      =    -0.0115727301 %
Recomputing EXC -2147.670577 -2147.786403 -2147.779892 
   28   -2147.6705769709      1.63E+00
 Inaccurate integrated density:
   Number of electrons =    87
   Numerical integral  =    86.947528892445
   Relative error      =    -0.0603116179 %
 Inaccurate integrated density:
   Number of electrons =    87
   Numerical integral  =    86.988357885884
   Relative error      =    -0.0133817404 %
Recomputing EXC -2114.202363 -2152.356297 -2147.670577 
 Inaccurate integrated density:
   Number of electrons =    87
   Numerical integral  =    86.989871335088
   Relative error      =    -0.0116421436 %
Recomputing EXC -2146.331937 -2147.850214 -2147.670577 
 Inaccurate integrated density:
   Number of electrons =    87
   Numerical integral  =    86.989929490193
   Relative error      =    -0.0115752986 %
Recomputing EXC -2147.560554 -2147.677227 -2147.670577 
   29   -2147.5605542860      1.63E+00
 Inaccurate integrated density:
   Number of electrons =    87
   Numerical integral  =    86.947233653984
   Relative error      =    -0.0606509724 %
 Inaccurate integrated density:
   Number of electrons =    87
   Numerical integral  =    86.988337894870
   Relative error      =    -0.0134047185 %
Recomputing EXC -2113.978655 -2152.281291 -2147.560554 
 Inaccurate integrated density:
   Number of electrons =    87
   Numerical integral  =    86.989868219100
   Relative error      =    -0.0116457252 %
Recomputing EXC -2146.213197 -2147.742131 -2147.560554 
 Inaccurate integrated density:
   Number of electrons =    87
   Numerical integral  =    86.989927214973
   Relative error      =    -0.0115779138 %
Recomputing EXC -2147.450017 -2147.567300 -2147.560554 
   30   -2147.4500169543      1.63E+00
 Inaccurate integrated density:
   Number of electrons =    87
   Numerical integral  =    86.946958545290
   Relative error      =    -0.0609671893 %
 Inaccurate integrated density:
   Number of electrons =    87
   Numerical integral  =    86.988325708390
   Relative error      =    -0.0134187260 %
Recomputing EXC -2113.753636 -2152.185380 -2147.450017 
 Inaccurate integrated density:
   Number of electrons =    87
   Numerical integral  =    86.989865578705
   Relative error      =    -0.0116487601 %
Recomputing EXC -2146.098569 -2147.632108 -2147.450017 
 Inaccurate integrated density:
   Number of electrons =    87
   Numerical integral  =    86.989924926575
   Relative error      =    -0.0115805442 %
Recomputing EXC -2147.339311 -2147.456781 -2147.450017 
   31   -2147.3393111097      1.63E+00
 Inaccurate integrated density:
   Number of electrons =    87
   Numerical integral  =    86.946711199760
   Relative error      =    -0.0612514945 %
 Inaccurate integrated density:
   Number of electrons =    87
   Numerical integral  =    86.988325612385
   Relative error      =    -0.0134188363 %
Recomputing EXC -2113.546927 -2152.057587 -2147.339311 
 Inaccurate integrated density:
   Number of electrons =    87
   Numerical integral  =    86.989863695035
   Relative error      =    -0.0116509252 %
Recomputing EXC -2145.991162 -2147.519793 -2147.339311 
 Inaccurate integrated density:
   Number of electrons =    87
   Numerical integral  =    86.989922665269
   Relative error      =    -0.0115831434 %
Recomputing EXC -2147.228957 -2147.345980 -2147.339311 
   32   -2147.2289569297      1.63E+00
 Inaccurate integrated density:
   Number of electrons =    87
   Numerical integral  =    86.946498210966
   Relative error      =    -0.0614963092 %
 Inaccurate integrated density:
   Number of electrons =    87
   Numerical integral  =    86.988340613657
   Relative error      =    -0.0134015935 %
Recomputing EXC -2113.394171 -2151.890697 -2147.228957 
 Inaccurate integrated density:
   Number of electrons =    87
   Numerical integral  =    86.989862739561
   Relative error      =    -0.0116520235 %
Recomputing EXC -2145.893622 -2147.405358 -2147.228957 
 Inaccurate integrated density:
   Number of electrons =    87
   Numerical integral  =    86.989920476454
   Relative error      =    -0.0115856592 %
Recomputing EXC -2147.119569 -2147.235403 -2147.228957 
   33   -2147.1195689607      1.63E+00
 Inaccurate integrated density:
   Number of electrons =    87
   Numerical integral  =    86.946319063013
   Relative error      =    -0.0617022264 %
 Inaccurate integrated density:
   Number of electrons =    87
   Numerical integral  =    86.988368142091
   Relative error      =    -0.0133699516 %
Recomputing EXC -2113.347862 -2151.692825 -2147.119569 
 Inaccurate integrated density:
   Number of electrons =    87
   Numerical integral  =    86.989862483590
   Relative error      =    -0.0116523177 %
Recomputing EXC -2145.805374 -2147.290211 -2147.119569 
 Inaccurate integrated density:
   Number of electrons =    87
   Numerical integral  =    86.989918388292
   Relative error      =    -0.0115880594 %
Recomputing EXC -2147.011582 -2147.125716 -2147.119569 
   34   -2147.0115816731      1.63E+00
 Inaccurate integrated density:
   Number of electrons =    87
   Numerical integral  =    86.947250376010
   Relative error      =    -0.0606317517 %
 Inaccurate integrated density:
   Number of electrons =    87
   Numerical integral  =    86.988452045009
   Relative error      =    -0.0132735115 %
Recomputing EXC -2113.409362 -2151.444281 -2147.011582 
 Inaccurate integrated density:
   Number of electrons =    87
   Numerical integral  =    86.989864747332
   Relative error      =    -0.0116497157 %
Recomputing EXC -2145.731489 -2147.173490 -2147.011582 
 Inaccurate integrated density:
   Number of electrons =    87
   Numerical integral  =    86.989916498570
   Relative error      =    -0.0115902315 %
Recomputing EXC -2146.905751 -2147.017288 -2147.011582 
   35   -2146.9057514352      1.63E+00
 Inaccurate integrated density:
   Number of electrons =    87
   Numerical integral  =    86.947175566697
   Relative error      =    -0.0607177394 %
 Inaccurate integrated density:
   Number of electrons =    87
   Numerical integral  =    86.988473884218
   Relative error      =    -0.0132484089 %
Recomputing EXC -2113.388264 -2151.276445 -2146.905751 
 Inaccurate integrated density:
   Number of electrons =    87
   Numerical integral  =    86.989864209178
   Relative error      =    -0.0116503343 %
Recomputing EXC -2145.641002 -2147.063904 -2146.905751 
 Inaccurate integrated density:
   Number of electrons =    87
   Numerical integral  =    86.989914673927
   Relative error      =    -0.0115923288 %
Recomputing EXC -2146.800848 -2146.911273 -2146.905751 
   36   -2146.8008482203      1.63E+00
 Inaccurate integrated density:
   Number of electrons =    87
   Numerical integral  =    86.947097400413
   Relative error      =    -0.0608075857 %
 Inaccurate integrated density:
   Number of electrons =    87
   Numerical integral  =    86.988476853309
   Relative error      =    -0.0132449962 %
Recomputing EXC -2113.463584 -2151.165999 -2146.800848 
 Inaccurate integrated density:
   Number of electrons =    87
   Numerical integral  =    86.989862356452
   Relative error      =    -0.0116524638 %
Recomputing EXC -2145.539256 -2146.959380 -2146.800848 
 Inaccurate integrated density:
   Number of electrons =    87
   Numerical integral  =    86.989912840801
   Relative error      =    -0.0115944359 %
Recomputing EXC -2146.695870 -2146.806405 -2146.800848 
   37   -2146.6958700321      1.63E+00
 Inaccurate integrated density:
   Number of electrons =    87
   Numerical integral  =    86.947012781067
   Relative error      =    -0.0609048493 %
 Inaccurate integrated density:
   Number of electrons =    87
   Numerical integral  =    86.988460281660
   Relative error      =    -0.0132640441 %
Recomputing EXC -2113.534135 -2151.113651 -2146.695870 
 Inaccurate integrated density:
   Number of electrons =    87
   Numerical integral  =    86.989859205556
   Relative error      =    -0.0116560856 %
Recomputing EXC -2145.424099 -2146.858658 -2146.695870 
 Inaccurate integrated density:
   Number of electrons =    87
   Numerical integral  =    86.989910932306
   Relative error      =    -0.0115966295 %
Recomputing EXC -2146.589865 -2146.701665 -2146.695870 
   38   -2146.5898650235      1.63E+00
 Inaccurate integrated density:
   Number of electrons =    87
   Numerical integral  =    86.946922056769
   Relative error      =    -0.0610091302 %
 Inaccurate integrated density:
   Number of electrons =    87
   Numerical integral  =    86.988425382491
   Relative error      =    -0.0133041581 %
Recomputing EXC -2113.596471 -2151.114920 -2146.589865 
 Inaccurate integrated density:
   Number of electrons =    87
   Numerical integral  =    86.989854729098
   Relative error      =    -0.0116612309 %
Recomputing EXC -2145.295623 -2146.760685 -2146.589865 
 Inaccurate integrated density:
   Number of electrons =    87
   Numerical integral  =    86.989908880825
   Relative error      =    -0.0115989876 %
Recomputing EXC -2146.481918 -2146.596103 -2146.589865 
   39   -2146.4819180127      1.63E+00
 Inaccurate integrated density:
   Number of electrons =    87
   Numerical integral  =    86.946825568835
   Relative error      =    -0.0611200358 %
 Inaccurate integrated density:
   Number of electrons =    87
   Numerical integral  =    86.988372757355
   Relative error      =    -0.0133646467 %
Recomputing EXC -2113.666954 -2151.167117 -2146.481918 
 Inaccurate integrated density:
   Number of electrons =    87
   Numerical integral  =    86.989848799755
   Relative error      =    -0.0116680463 %
Recomputing EXC -2145.153858 -2146.664740 -2146.481918 
 Inaccurate integrated density:
   Number of electrons =    87
   Numerical integral  =    86.989906610167
   Relative error      =    -0.0116015975 %
Recomputing EXC -2146.371091 -2146.488830 -2146.481918 
   40   -2146.3710906946      1.63E+00
 Inaccurate integrated density:
   Number of electrons =    87
   Numerical integral  =    86.946722085387
   Relative error      =    -0.0612389823 %
 Inaccurate integrated density:
   Number of electrons =    87
   Numerical integral  =    86.988300594505
   Relative error      =    -0.0134475925 %
Recomputing EXC -2113.772313 -2151.274519 -2146.371091 
 Inaccurate integrated density:
   Number of electrons =    87
   Numerical integral  =    86.989841057778
   Relative error      =    -0.0116769451 %
Recomputing EXC -2144.997548 -2146.570743 -2146.371091 
 Inaccurate integrated density:
   Number of electrons =    87
   Numerical integral  =    86.989904019870
   Relative error      =    -0.0116045749 %
Recomputing EXC -2146.256277 -2146.378983 -2146.371091 
   41   -2146.2562769043      1.63E+00
 Inaccurate integrated density:
   Number of electrons =    87
   Numerical integral  =    86.946608096275
   Relative error      =    -0.0613700043 %
 Inaccurate integrated density:
   Number of electrons =    87
   Numerical integral  =    86.988203131704
   Relative error      =    -0.0135596187 %
Recomputing EXC -2113.950205 -2151.452691 -2146.256277 
 Inaccurate integrated density:
   Number of electrons =    87
   Numerical integral  =    86.989830729179
   Relative error      =    -0.0116888170 %
Recomputing EXC -2144.823299 -2146.479612 -2146.256277 
 Inaccurate integrated density:
   Number of electrons =    87
   Numerical integral  =    86.989900955605
   Relative error      =    -0.0116080970 %
Recomputing EXC -2146.135960 -2146.265618 -2146.256277 
   42   -2146.1359599591      1.63E+00
 Inaccurate integrated density:
   Number of electrons =    87
   Numerical integral  =    86.946476932496
   Relative error      =    -0.0615207672 %
 Inaccurate integrated density:
   Number of electrons =    87
   Numerical integral  =    86.988067901638
   Relative error      =    -0.0137150556 %
Recomputing EXC -2114.259991 -2151.736143 -2146.135960 
 Inaccurate integrated density:
   Number of electrons =    87
   Numerical integral  =    86.989816229450
   Relative error      =    -0.0117054834 %
Recomputing EXC -2144.624452 -2146.394102 -2146.135960 
 Inaccurate integrated density:
   Number of electrons =    87
   Numerical integral  =    86.989897145390
   Relative error      =    -0.0116124766 %
Recomputing EXC -2146.007772 -2146.147574 -2146.135960 
   43   -2146.0077715979      1.63E+00
 Inaccurate integrated density:
   Number of electrons =    87
   Numerical integral  =    86.946316577855
   Relative error      =    -0.0617050829 %
 Inaccurate integrated density:
   Number of electrons =    87
   Numerical integral  =    86.987869057731
   Relative error      =    -0.0139436118 %
Recomputing EXC -2114.814340 -2152.196826 -2146.007772 
 Inaccurate integrated density:
   Number of electrons =    87
   Numerical integral  =    86.989794113808
   Relative error      =    -0.0117309037 %
Recomputing EXC -2144.388975 -2146.321271 -2146.007772 
 Inaccurate integrated density:
   Number of electrons =    87
   Numerical integral  =    86.989892035563
   Relative error      =    -0.0116183499 %
Recomputing EXC -2145.867561 -2146.023325 -2146.007772 
   44   -2145.8675606302      1.63E+00
 Inaccurate integrated density:
   Number of electrons =    87
   Numerical integral  =    86.946104325071
   Relative error      =    -0.0619490516 %
 Inaccurate integrated density:
   Number of electrons =    87
   Numerical integral  =    86.987548242313
   Relative error      =    -0.0143123652 %
Recomputing EXC -2115.873673 -2152.996887 -2145.867561 
 Inaccurate integrated density:
   Number of electrons =    87
   Numerical integral  =    86.989755708182
   Relative error      =    -0.0117750481 %
Recomputing EXC -2144.095651 -2146.280906 -2145.867561 
 Inaccurate integrated density:
   Number of electrons =    87
   Numerical integral  =    86.989884261210
   Relative error      =    -0.0116272860 %
Recomputing EXC -2145.707067 -2145.891141 -2145.867561 
   45   -2145.7070671555      1.63E+00
 Inaccurate integrated density:
   Number of electrons =    87
   Numerical integral  =    86.945795737296
   Relative error      =    -0.0623037502 %
 Inaccurate integrated density:
   Number of electrons =    87
   Numerical integral  =    86.986943021893
   Relative error      =    -0.0150080208 %
Recomputing EXC -2118.193246 -2154.584930 -2145.707067 
 Inaccurate integrated density:
   Number of electrons =    87
   Numerical integral  =    86.989672338519
   Relative error      =    -0.0118708753 %
Recomputing EXC -2143.711625 -2146.344314 -2145.707067 
 Inaccurate integrated density:
   Number of electrons =    87
   Numerical integral  =    86.989869203186
   Relative error      =    -0.0116445940 %
Recomputing EXC -2145.506805 -2145.752358 -2145.707067 
   46   -2145.5068047581      1.63E+00
 Inaccurate integrated density:
   Number of electrons =    87
   Numerical integral  =    86.945306227450
   Relative error      =    -0.0628664052 %
 Inaccurate integrated density:
   Number of electrons =    87
   Numerical integral  =    86.985351727707
   Relative error      =    -0.0168370946 %
Recomputing EXC -2125.042247 -2158.867815 -2145.506805 
 Inaccurate integrated density:
   Number of electrons =    87
   Numerical integral  =    86.989377699668
   Relative error      =    -0.0122095406 %
Recomputing EXC -2143.316277 -2146.952398 -2145.506805 
 Inaccurate integrated density:
   Number of electrons =    87
   Numerical integral  =    86.989815982401
   Relative error      =    -0.0117057674 %
Recomputing EXC -2145.214266 -2145.663327 -2145.506805 
   47   -2145.2142656319      1.62E+00
 Inaccurate integrated density:
   Number of electrons =    87
   Numerical integral  =    86.944492821229
   Relative error      =    -0.0638013549 %
 Inaccurate integrated density:
   Number of electrons =    87
   Numerical integral  =    86.944492821250
   Relative error      =    -0.0638013549 %
   48   -2248.3640675158      2.72E-01
 Inaccurate integrated density:
   Number of electrons =    87
   Numerical integral  =    86.957433447282
   Relative error      =    -0.0489270721 %
 Inaccurate integrated density:
   Number of electrons =    87
   Numerical integral  =    86.944570783710
   Relative error      =    -0.0637117429 %
Recomputing EXC -2241.142121 -2248.498992 -2248.364068 
 Inaccurate integrated density:
   Number of electrons =    87
   Numerical integral  =    86.944493293105
   Relative error      =    -0.0638008125 %
Recomputing EXC -2248.320365 -2248.364884 -2248.364068 
 Inaccurate integrated density:
   Number of electrons =    87
   Numerical integral  =    86.944492824088
   Relative error      =    -0.0638013516 %
Recomputing EXC -2248.363803 -2248.364072 -2248.364068 
   49   -2248.3638030309      2.72E-01
 Inaccurate integrated density:
   Number of electrons =    87
   Numerical integral  =    86.957433447741
   Relative error      =    -0.0489270716 %
 Inaccurate integrated density:
   Number of electrons =    87
   Numerical integral  =    86.944570786527
   Relative error      =    -0.0637117396 %
Recomputing EXC -2242.286016 -2248.498727 -2248.363803 
 Inaccurate integrated density:
   Number of electrons =    87
   Numerical integral  =    86.944493381953
   Relative error      =    -0.0638007104 %
   50   -2249.4695119962      2.72E-01 Done RCA. Switching to DIIS
 Inaccurate integrated density:
   Number of electrons =    87
   Numerical integral  =    86.957042304673
   Relative error      =    -0.0493766613 %
   51   -1040.2570071663      6.31E-02
   52   -1066.4635689112      6.62E-02
 Inaccurate integrated density:
   Number of electrons =    87
   Numerical integral  =    86.982277109000
   Relative error      =    -0.0203711391 %
   53   -1089.6395918591      5.10E-02
 Inaccurate integrated density:
   Number of electrons =    87
   Numerical integral  =    86.983704742168
   Relative error      =    -0.0187301814 %
   54   -1103.2176126993      2.29E-02
 Inaccurate integrated density:
   Number of electrons =    87
   Numerical integral  =    86.981888582551
   Relative error      =    -0.0208177212 %
   55   -1102.4688009375      3.14E-02
 Inaccurate integrated density:
   Number of electrons =    87
   Numerical integral  =    86.982188677315
   Relative error      =    -0.0204727847 %
   56   -1102.5713439296      1.73E-02
 Inaccurate integrated density:
   Number of electrons =    87
   Numerical integral  =    86.982607837132
   Relative error      =    -0.0199909918 %
   57   -1102.6158245145      1.34E-02
   58   -1103.7911412166      1.56E-02
   59   -1104.4594589451      9.79E-03
   60   -1104.0369688439      2.26E-02
   61   -1104.8129318782      2.15E-03
 Inaccurate integrated density:
   Number of electrons =    87
   Numerical integral  =    86.988196963487
   Relative error      =    -0.0135667086 %
   62   -1101.1099619534      1.39E-02
 Inaccurate integrated density:
   Number of electrons =    87
   Numerical integral  =    86.988299933519
   Relative error      =    -0.0134483523 %
   63   -1101.3355792784      1.24E-02
 Inaccurate integrated density:
   Number of electrons =    87
   Numerical integral  =    86.987819160717
   Relative error      =    -0.0140009647 %
   64   -1101.4352051901      1.15E-02
 Inaccurate integrated density:
   Number of electrons =    87
   Numerical integral  =    86.987920646347
   Relative error      =    -0.0138843145 %
   65   -1101.7056030562      1.12E-02
 Inaccurate integrated density:
   Number of electrons =    87
   Numerical integral  =    86.988520338632
   Relative error      =    -0.0131950131 %
   66   -1102.2063185583      8.43E-03
 Inaccurate integrated density:
   Number of electrons =    87
   Numerical integral  =    86.988761868700
   Relative error      =    -0.0129173923 %
   67   -1102.7261747114      7.27E-03
 Inaccurate integrated density:
   Number of electrons =    87
   Numerical integral  =    86.988903307873
   Relative error      =    -0.0127548185 %
   68   -1103.1226158115      6.61E-03
 Inaccurate integrated density:
   Number of electrons =    87
   Numerical integral  =    86.989388689429
   Relative error      =    -0.0121969087 %
   69   -1103.7821301133      5.47E-03
 Inaccurate integrated density:
   Number of electrons =    87
   Numerical integral  =    86.986680633564
   Relative error      =    -0.0153096166 %
   70   -1104.4238613257      2.39E-03
   71   -1104.7941045564      2.16E-03
   72   -1104.8143585384      1.59E-03
   73   -1104.8267112854      1.18E-03
   74   -1104.8398438664      4.16E-04
   75   -1104.8416253581      1.76E-04
   76   -1104.8419380260      3.05E-05
   77   -1104.8419499687      7.52E-06
   78   -1104.8419513651      2.33E-06
   79   -1104.8419520879      1.18E-06
   80   -1104.8419522362      2.17E-07
   81   -1104.8419522522      8.74E-08
   82   -1104.8419522620      2.58E-08
   83   -1104.8419522614      1.03E-08
   84   -1104.8419522615      3.67E-09 Convergence criterion met
 ---------------------------------------
 <S^2> = 0.7626
 SCF time:  CPU 77.68 s  wall 70.90 s
 SCF   energy in the final basis set = -1104.8419522615
 Total energy in the final basis set = -1104.8419522615
 
 --------------------------------------------------------------
             Orbital Energies (a.u.) and Symmetries
 --------------------------------------------------------------
 
 Alpha MOs, Unrestricted
 -- Occupied --                  
-88.751 -88.751 -10.064 -10.063 -10.057 -10.057 -10.049 -10.049
  1 B     1 A     2 A     2 B     3 B     3 A     4 A     4 B                  
-10.033 -10.033  -7.810  -7.810  -5.774  -5.774  -5.771  -5.771
  5 B     5 A     6 A     6 B     7 A     7 B     8 B     8 A                  
 -5.767  -5.767  -0.724  -0.702  -0.606  -0.581  -0.571  -0.536
  9 B     9 A    10 A    10 B    11 A    11 B    12 A    12 B                  
 -0.447  -0.416  -0.391  -0.370  -0.363  -0.315  -0.260  -0.256
 13 A    13 B    14 A    14 B    15 A    15 B    16 B    16 A                  
 -0.244  -0.241  -0.238  -0.211  -0.209  -0.193  -0.179  -0.121
 17 A    17 B    18 A    19 A    18 B    19 B    20 A    21 A                  
 -0.108  -0.104  -0.054   0.051
 20 B    22 A    21 B    23 A                                                  
 -- Virtual --                   
  0.094   0.096   0.111   0.113   0.124   0.133   0.137   0.149
 24 A    22 B    23 B    25 A    26 A    24 B    25 B    26 B                  
  0.159   0.160   0.169   0.169   0.177   0.182   0.185   0.190
 27 A    28 A    27 B    29 A    28 B    30 A    29 B    31 A                  
  0.197   0.206   0.208   0.211   0.220   0.222   0.223   0.229
 30 B    32 A    31 B    33 A    34 A    32 B    35 A    33 B                  
  0.238   0.239   0.244   0.245   0.250   0.253   0.259   0.270
 34 B    36 A    35 B    37 A    36 B    37 B    38 A    39 A                  
  0.277   0.279   0.280   0.283   0.298   0.301   0.308   0.310
 38 B    40 A    39 B    41 A    40 B    42 A    43 A    41 B                  
  0.322   0.329   0.329   0.330   0.340   0.345   0.356   0.372
 42 B    43 B    44 A    44 B    45 A    46 A    45 B    46 B                  
  0.380   0.388   0.390   0.403   0.410   0.422   0.426   0.453
 47 A    47 B    48 A    49 A    48 B    49 B    50 A    50 B                  
  0.454   0.476   0.482   0.486   0.509   0.540   0.557   0.597
 51 A    52 A    51 B    53 A    52 B    54 A    53 B    54 B                  
  0.606   0.664   0.667   0.686   0.695   0.709   0.724   0.761
 55 A    56 A    55 B    57 A    56 B    57 B    58 A    59 A                  
  0.763   0.766   0.799   0.817   0.819   0.826   0.830   0.842
 58 B    60 A    59 B    60 B    61 A    62 A    61 B    63 A                  
  0.868   0.876   0.886   0.896   0.906   0.921   0.930   0.974
 62 B    64 A    63 B    64 B    65 A    66 A    65 B    66 B                  
  0.979   0.985   1.001   1.017   1.066   1.089   1.101   1.106
 67 A    67 B    68 A    69 A    68 B    70 A    69 B    71 A                  
  1.108   1.110   1.114   1.127   1.132   1.143   1.166   1.178
 72 A    70 B    71 B    72 B    73 A    73 B    74 B    74 A                  
  1.198   1.210   1.241   1.250   1.263   1.288   1.295   1.324
 75 A    76 A    77 A    75 B    76 B    77 B    78 A    79 A                  
  1.324   1.346   1.397   1.409   1.474   1.503   1.507   1.511
 78 B    80 A    81 A    79 B    80 B    82 A    81 B    83 A                  
  1.515   1.531   1.625   1.626   1.674   1.691   1.733   1.838
 82 B    84 A    85 A    83 B    84 B    85 B    86 A    87 A                  
  1.843   1.894   1.985   1.991   2.029   2.046   2.063   2.073
 86 B    88 A    89 A    87 B    90 A    88 B    91 A    89 B                  
  2.108   2.126   2.161   2.192   2.209   2.232   2.259   2.295
 92 A    90 B    93 A    91 B    94 A    92 B    93 B    95 A                  
  2.311   2.319   2.377   2.382   2.427   2.495   2.514   2.517
 96 A    94 B    97 A    95 B    96 B    98 A    97 B    99 A                  
  2.562   2.600   2.615   2.620   2.642   2.668   2.679   2.680
 98 B   100 A   101 A    99 B   100 B   102 A   101 B   103 A                  
  2.725   2.740   2.760   2.818   2.842   2.870   2.898   3.013
102 B   104 A   103 B   105 A   106 A   104 B   105 B   107 A                  
  3.020   3.065   3.110   3.297   3.357   3.415   3.421   3.556
106 B   108 A   107 B   108 B   109 A   109 B   110 A   111 A                  
  3.579   3.866   3.889   4.131   4.135   4.417   4.454   4.461
110 B   112 A   111 B   112 B   113 A   114 A   113 B   115 A                  
  4.477   4.582   4.678   4.813   4.870
114 B   116 A   115 B   117 A   116 B                                          
 
 Beta MOs, Unrestricted
 -- Occupied --                  
-88.750 -88.750 -10.062 -10.062 -10.053 -10.053 -10.049 -10.049
  1 B     1 A     2 A     2 B     3 B     3 A     4 A     4 B                  
-10.031 -10.031  -7.809  -7.809  -5.774  -5.774  -5.770  -5.770
  5 B     5 A     6 A     6 B     7 A     7 B     8 B     8 A                  
 -5.765  -5.765  -0.720  -0.699  -0.601  -0.578  -0.567  -0.532
  9 B     9 A    10 A    10 B    11 A    11 B    12 A    12 B                  
 -0.440  -0.413  -0.388  -0.367  -0.361  -0.314  -0.259  -0.254
 13 A    13 B    14 A    14 B    15 A    15 B    16 B    16 A                  
 -0.240  -0.239  -0.232  -0.208  -0.200  -0.191  -0.176  -0.106
 17 B    17 A    18 A    19 A    18 B    19 B    20 A    21 A                  
 -0.098  -0.094  -0.036
 20 B    22 A    21 B                                                          
 -- Virtual --                   
  0.094   0.096   0.104   0.110   0.113   0.124   0.134   0.144
 23 A    22 B    24 A    23 B    25 A    26 A    24 B    25 B                  
  0.155   0.159   0.161   0.169   0.170   0.177   0.185   0.186
 26 B    27 A    28 A    27 B    29 A    28 B    30 A    29 B                  
  0.192   0.199   0.206   0.210   0.212   0.222   0.223   0.224
 31 A    30 B    32 A    31 B    33 A    34 A    32 B    35 A                  
  0.230   0.240   0.240   0.245   0.245   0.250   0.258   0.260
 33 B    34 B    36 A    35 B    37 A    36 B    37 B    38 A                  
  0.271   0.277   0.279   0.282   0.283   0.300   0.302   0.309
 39 A    38 B    40 A    39 B    41 A    40 B    42 A    43 A                  
  0.314   0.322   0.329   0.329   0.332   0.341   0.346   0.356
 41 B    42 B    43 B    44 A    44 B    45 A    46 A    45 B                  
  0.373   0.380   0.388   0.391   0.404   0.411   0.426   0.427
 46 B    47 A    47 B    48 A    49 A    48 B    49 B    50 A                  
  0.455   0.455   0.478   0.483   0.488   0.510   0.542   0.560
 51 A    50 B    52 A    51 B    53 A    52 B    54 A    53 B                  
  0.598   0.608   0.665   0.670   0.688   0.697   0.710   0.726
 54 B    55 A    56 A    55 B    57 A    56 B    57 B    58 A                  
  0.764   0.765   0.768   0.808   0.823   0.824   0.834   0.835
 59 A    58 B    60 A    59 B    60 B    61 A    61 B    62 A                  
  0.845   0.871   0.877   0.888   0.900   0.913   0.923   0.933
 63 A    62 B    64 A    63 B    64 B    65 A    66 A    65 B                  
  0.975   0.985   0.992   1.006   1.022   1.068   1.091   1.105
 66 B    67 A    67 B    68 A    69 A    68 B    70 A    69 B                  
  1.106   1.110   1.112   1.117   1.129   1.133   1.144   1.168
 71 A    72 A    70 B    71 B    72 B    73 A    73 B    74 B                  
  1.180   1.200   1.214   1.244   1.252   1.266   1.290   1.297
 74 A    75 A    76 A    77 A    75 B    76 B    77 B    78 A                  
  1.326   1.329   1.348   1.401   1.411   1.477   1.507   1.510
 78 B    79 A    80 A    81 A    79 B    80 B    82 A    81 B                  
  1.515   1.520   1.535   1.627   1.628   1.677   1.696   1.736
 83 A    82 B    84 A    85 A    83 B    84 B    85 B    86 A                  
  1.848   1.853   1.901   1.989   1.993   2.033   2.047   2.065
 87 A    86 B    88 A    89 A    87 B    90 A    88 B    91 A                  
  2.076   2.110   2.130   2.165   2.193   2.212   2.239   2.265
 89 B    92 A    90 B    93 A    91 B    94 A    92 B    93 B                  
  2.303   2.317   2.325   2.382   2.389   2.432   2.501   2.515
 95 A    96 A    94 B    97 A    95 B    96 B    98 A    97 B                  
  2.518   2.563   2.606   2.616   2.624   2.645   2.671   2.681
 99 A    98 B   100 A   101 A    99 B   100 B   102 A   101 B                  
  2.682   2.730   2.743   2.763   2.820   2.845   2.874   2.901
103 A   102 B   104 A   103 B   105 A   106 A   104 B   105 B                  
  3.015   3.023   3.066   3.111   3.298   3.358   3.415   3.421
107 A   106 B   108 A   107 B   108 B   109 A   109 B   110 A                  
  3.557   3.581   3.867   3.890   4.132   4.137   4.421   4.459
111 A   110 B   112 A   111 B   112 B   113 A   114 A   113 B                  
  4.463   4.479   4.588   4.683   4.815   4.873
115 A   114 B   116 A   115 B   117 A   116 B                                  
 --------------------------------------------------------------
 
          Ground-State Mulliken Net Atomic Charges

     Atom                 Charge (a.u.)    Spin (a.u.)
  --------------------------------------------------------
      1 S                    -0.268057       0.119297
      2 C                    -0.088282       0.235464
      3 C                    -0.325582      -0.078121
      4 C                     0.113194       0.230483
      5 C                    -0.238155       0.004723
      6 H                     0.089013      -0.002435
      7 C                    -0.238155       0.004723
      8 S                    -0.268057       0.119297
      9 C                     0.113194       0.230483
     10 C                    -0.088282       0.235464
     11 C                    -0.325582      -0.078121
     12 H                     0.072774       0.003546
     13 H                     0.145095      -0.012957
     14 H                     0.072774       0.003546
     15 H                     0.145095      -0.012957
     16 H                     0.089013      -0.002435
  --------------------------------------------------------
  Sum of atomic charges =    -1.000000
  Sum of spin   charges =     1.000000

 -----------------------------------------------------------------
                    Cartesian Multipole Moments
 -----------------------------------------------------------------
    Charge (ESU x 10^10)
                -4.8032
    Dipole Moment (Debye)
         X      -0.0000      Y       0.0000      Z       0.0463
       Tot       0.0463
    Quadrupole Moments (Debye-Ang)
        XX     -99.7484     XY       1.0320     YY     -84.1103
        XZ       0.0000     YZ       0.0000     ZZ     -87.0412
    Octopole Moments (Debye-Ang^2)
       XXX      -0.0000    XXY      -0.0000    XYY      -0.0000
       YYY      -0.0000    XXZ      -3.7594    XYZ       3.6656
       YYZ       1.7371    XZZ      -0.0000    YZZ       0.0000
       ZZZ      -4.2248
    Hexadecapole Moments (Debye-Ang^3)
      XXXX   -2496.4592   XXXY     -30.3428   XXYY    -519.0274
      XYYY       7.9232   YYYY    -668.0277   XXXZ      -0.0000
      XXYZ      -0.0000   XYYZ      -0.0000   YYYZ      -0.0000
      XXZZ    -494.5174   XYZZ      -8.8397   YYZZ    -152.8745
      XZZZ      -0.0000   YZZZ      -0.0000   ZZZZ    -186.2537
 -----------------------------------------------------------------
 Calculating analytic gradient of the SCF energy
 Gradient of SCF Energy
            1           2           3           4           5           6
    1  -0.0012916   0.0001675   0.0000225   0.0003244  -0.0028205   0.0004679
    2   0.0009077   0.0013325  -0.0014319   0.0001761  -0.0015208   0.0004633
    3  -0.0014212  -0.0005118   0.0028011   0.0050390  -0.0027909  -0.0013394
            7           8           9          10          11          12
    1   0.0028205   0.0012916  -0.0003244  -0.0001675  -0.0000225   0.0000220
    2   0.0015208  -0.0009077  -0.0001761  -0.0013325   0.0014319  -0.0000251
    3  -0.0027909  -0.0014212   0.0050390  -0.0005118   0.0028011  -0.0002101
           13          14          15          16
    1  -0.0001635  -0.0000220   0.0001635  -0.0004679
    2   0.0002178   0.0000251  -0.0002178  -0.0004633
    3  -0.0015667  -0.0002101  -0.0015667  -0.0013394
 Max gradient component =       5.039E-03
 RMS gradient           =       1.644E-03
 Gradient time:  CPU 1.89 s  wall 1.85 s
 Geometry Optimization Parameters
   NAtoms,    NIC,     NZ,  NCons,   NDum,   NFix, NCnnct, MaxDiis
       16     111       0       1       0       0       0       0


** CONSTRAINED OPTIMIZATION IN DELOCALIZED INTERNAL COORDINATES **
   Searching for a Minimum

   Optimization Cycle:   1

                       Coordinates (Angstroms)
     ATOM                X               Y               Z
      1  S         1.8486131459   -1.1957012165   -0.3027074408
      2  C         3.2381971899   -0.1254511737   -0.0812210170
      3  C         2.8225738859    1.1447110572    0.2725126232
      4  C         1.4230766223    1.2970026033    0.3748230942
      5  C         0.6943666313    0.1172110198    0.0956088795
      6  H         0.9349301681    2.2277780810    0.6434770507
      7  C        -0.6943666313   -0.1172110198    0.0956088795
      8  S        -1.8486131459    1.1957012165   -0.3027074408
      9  C        -1.4230766223   -1.2970026033    0.3748230942
     10  C        -3.2381971899    0.1254511737   -0.0812210170
     11  C        -2.8225738859   -1.1447110572    0.2725126232
     12  H        -3.5218660584   -1.9571834163    0.4559317300
     13  H         4.2419325179   -0.5000161045   -0.2264314241
     14  H         3.5218660584    1.9571834163    0.4559317300
     15  H        -4.2419325179    0.5000161045   -0.2264314241
     16  H        -0.9349301681   -2.2277780810    0.6434770507
   Point Group: c2    Number of degrees of freedom:    22


   Energy is  -1104.841952261

              Constraints and their Current Values
                                        Value     Constraint
   Dihedral:        4   5   7   9     -150.000     -150.000

 Attempting to Generate Delocalized Internal Coordinates

 21 Hessian modes will be used to form the next step
  Hessian Eigenvalues:
     0.045000    0.045000    0.045000    0.045000    0.045000    0.045000
     0.160000    0.160000    0.160000    0.221184    0.237470    0.250000
     0.264210    0.283931    0.350974    0.354198    0.358566    0.414224
     0.425056    0.442595    0.471396

 Minimum Search - Taking Simple RFO Step
 Searching for Lamda that Minimizes Along All modes
 Value Taken    Lamda =  -0.00126470
 Step Taken.  Stepsize is  0.161914

                             Maximum     Tolerance    Cnvgd?
         Gradient           0.005263      0.000300      NO
         Displacement       0.083177      0.001200      NO
         Energy change     *********      0.000001      NO


 New Cartesian Coordinates Obtained by Inverse Iteration

 Displacement from previous Coordinates is:  0.395167
 ----------------------------------------------------------------
             Standard Nuclear Orientation (Angstroms)
    I     Atom           X                Y                Z
 ----------------------------------------------------------------
    1      S       1.8608304417    -1.2046986647    -0.2841552364
    2      C       3.2447763320    -0.1337527681    -0.0376667307
    3      C       2.8204744215     1.1489411390     0.2586982153
    4      C       1.4187220748     1.3011336548     0.3295234781
    5      C       0.6958682319     0.1199091049     0.0505029218
    6      H       0.9221026300     2.2313690289     0.5850478756
    7      C      -0.6958682319    -0.1199091049     0.0505029218
    8      S      -1.8608304417     1.2046986647    -0.2841552364
    9      C      -1.4187220748    -1.3011336548     0.3295234781
   10      C      -3.2447763320     0.1337527681    -0.0376667307
   11      C      -2.8204744215    -1.1489411390     0.2586982153
   12      H      -3.5152874749    -1.9629720187     0.4522037748
   13      H       4.2523987574    -0.5164889437    -0.1221608029
   14      H       3.5152874749     1.9629720187     0.4522037748
   15      H      -4.2523987574     0.5164889437    -0.1221608029
   16      H      -0.9221026300    -2.2313690289     0.5850478756
 ----------------------------------------------------------------
 Molecular Point Group                 C2    NOp =  2
 Largest Abelian Subgroup              C2    NOp =  2
 Nuclear Repulsion Energy =   622.8982724017 hartrees
 There are       44 alpha and       43 beta electrons
 Applying Cartesian multipole field
    Component          Value
    ---------          -----
     (2,0,0)        1.00000E-11
     (0,2,0)        2.00000E-11
     (0,0,2)       -3.00000E-11
 Nucleus-field energy     =     0.0000000218 hartrees
 Requested basis set is 6-31++G(d,p)
 There are 76 shells and 234 basis functions
 A cutoff of  1.0D-12 yielded   2527 shell pairs
 There are     24881 function pairs
 Smallest overlap matrix eigenvalue = 8.60E-07
 Linear dependence detected in AO basis
 Number of orthogonalized atomic orbitals = 233
 Maximum deviation from orthogonality = 3.538E-11
 Guess MOs from SCF MO coefficient file
 Reading MOs from coefficient file
 Reading MOs from coefficient file
 An unrestricted hybrid HF-DFT SCF calculation will be
 performed using Relaxed Constraint Minimization + Pulay DIIS
 Exchange:     0.2000 Hartree-Fock + 0.0800 Slater + 0.7200 B88
 Correlation:  0.1900 VWN1RPA + 0.8100 LYP
 Using SG-1 standard quadrature grid
 SCF converges when DIIS error is below 1.0E-08
 Geometry optimization detected.  Setting ReadMinima to 0
 Setting SaveMinima to 0
 Inaccurate integrated density:
   Number of electrons =    87
   Numerical integral  =    86.990553989143
   Relative error      =    -0.0108574837 %
 Inaccurate integrated density:
   Number of electrons =    87
   Numerical integral  =    86.990553989143
   Relative error      =    -0.0108574837 %
 ---------------------------------------
  Cycle       Energy         DIIS Error
 ---------------------------------------
    1   -1104.8374220139      1.41E-03
    2   -1104.8427346331      1.11E-04 Done RCA. Switching to DIIS
    3   -1104.8423504040      2.53E-04
    4   -1104.8428800384      1.62E-05
    5   -1104.8428816956      1.14E-05
    6   -1104.8428826828      3.84E-06
    7   -1104.8428828138      9.24E-07
    8   -1104.8428828260      3.04E-07
    9   -1104.8428828292      1.32E-07
   10   -1104.8428828302      4.43E-08
   11   -1104.8428828307      1.85E-08
   12   -1104.8428828308      1.17E-08
   13   -1104.8428828309      3.83E-09 Convergence criterion met
 ---------------------------------------
 <S^2> = 0.7627
 SCF time:  CPU 8.89 s  wall 8.26 s
 SCF   energy in the final basis set = -1104.8428828309
 Total energy in the final basis set = -1104.8428828309
 
 --------------------------------------------------------------
             Orbital Energies (a.u.) and Symmetries
 --------------------------------------------------------------
 
 Alpha MOs, Unrestricted
 -- Occupied --                  
-88.751 -88.751 -10.064 -10.064 -10.057 -10.057 -10.049 -10.049
  1 A     1 B     2 A     2 B     3 B     3 A     4 A     4 B                  
-10.033 -10.033  -7.810  -7.810  -5.774  -5.774  -5.771  -5.771
  5 B     5 A     6 A     6 B     7 A     7 B     8 B     8 A                  
 -5.767  -5.767  -0.723  -0.702  -0.606  -0.581  -0.571  -0.537
  9 B     9 A    10 A    10 B    11 A    11 B    12 A    12 B                  
 -0.447  -0.417  -0.391  -0.370  -0.363  -0.316  -0.261  -0.256
 13 A    13 B    14 A    14 B    15 A    15 B    16 B    16 A                  
 -0.243  -0.241  -0.239  -0.212  -0.209  -0.194  -0.178  -0.122
 17 A    17 B    18 A    19 A    18 B    19 B    20 A    21 A                  
 -0.108  -0.104  -0.054   0.050
 20 B    22 A    21 B    23 A                                                  
 -- Virtual --                   
  0.094   0.096   0.111   0.113   0.124   0.134   0.138   0.148
 24 A    22 B    23 B    25 A    26 A    24 B    25 B    26 B                  
  0.159   0.161   0.169   0.170   0.177   0.182   0.185   0.190
 27 A    28 A    29 A    27 B    28 B    30 A    29 B    31 A                  
  0.198   0.206   0.207   0.210   0.220   0.222   0.225   0.229
 30 B    32 A    31 B    33 A    34 A    32 B    35 A    33 B                  
  0.237   0.239   0.244   0.245   0.250   0.251   0.260   0.269
 34 B    36 A    37 A    35 B    36 B    37 B    38 A    39 A                  
  0.276   0.281   0.281   0.282   0.298   0.300   0.307   0.312
 38 B    39 B    40 A    41 A    40 B    42 A    43 A    41 B                  
  0.323   0.328   0.329   0.332   0.337   0.343   0.355   0.371
 42 B    43 B    44 A    44 B    45 A    46 A    45 B    46 B                  
  0.383   0.385   0.391   0.403   0.410   0.423   0.423   0.453
 47 A    47 B    48 A    49 A    48 B    49 B    50 A    50 B                  
  0.453   0.478   0.482   0.487   0.508   0.540   0.557   0.597
 51 A    52 A    51 B    53 A    52 B    54 A    53 B    54 B                  
  0.607   0.664   0.665   0.686   0.697   0.708   0.725   0.757
 55 A    56 A    55 B    57 A    56 B    57 B    58 A    59 A                  
  0.765   0.768   0.801   0.813   0.819   0.824   0.827   0.844
 58 B    60 A    59 B    60 B    61 A    62 A    61 B    63 A                  
  0.868   0.876   0.885   0.896   0.906   0.922   0.930   0.975
 62 B    64 A    63 B    64 B    65 A    66 A    65 B    66 B                  
  0.980   0.983   1.004   1.015   1.066   1.088   1.101   1.105
 67 A    67 B    68 A    69 A    68 B    70 A    69 B    71 A                  
  1.107   1.111   1.117   1.127   1.134   1.142   1.168   1.178
 72 A    70 B    71 B    72 B    73 A    73 B    74 B    74 A                  
  1.195   1.208   1.242   1.250   1.262   1.287   1.294   1.320
 75 A    76 A    77 A    75 B    76 B    77 B    78 A    79 A                  
  1.325   1.351   1.399   1.405   1.472   1.497   1.509   1.513
 78 B    80 A    81 A    79 B    80 B    82 A    81 B    83 A                  
  1.515   1.534   1.627   1.628   1.672   1.682   1.738   1.836
 82 B    84 A    83 B    85 A    84 B    85 B    86 A    87 A                  
  1.843   1.887   1.983   1.996   2.025   2.046   2.061   2.074
 86 B    88 A    89 A    87 B    90 A    88 B    91 A    89 B                  
  2.106   2.123   2.160   2.188   2.211   2.230   2.264   2.296
 92 A    90 B    93 A    91 B    94 A    92 B    93 B    95 A                  
  2.308   2.321   2.376   2.381   2.422   2.494   2.514   2.517
 96 A    94 B    97 A    95 B    96 B    98 A    97 B    99 A                  
  2.563   2.601   2.613   2.614   2.645   2.665   2.681   2.684
 98 B   100 A    99 B   101 A   100 B   102 A   103 A   101 B                  
  2.722   2.739   2.761   2.819   2.839   2.872   2.895   3.011
102 B   104 A   103 B   105 A   106 A   104 B   105 B   107 A                  
  3.018   3.063   3.110   3.297   3.356   3.414   3.420   3.555
106 B   108 A   107 B   108 B   109 A   109 B   110 A   111 A                  
  3.578   3.865   3.888   4.131   4.135   4.415   4.454   4.461
110 B   112 A   111 B   112 B   113 A   114 A   113 B   115 A                  
  4.477   4.580   4.678   4.812   4.868
114 B   116 A   115 B   117 A   116 B                                          
 
 Beta MOs, Unrestricted
 -- Occupied --                  
-88.750 -88.750 -10.063 -10.062 -10.054 -10.054 -10.050 -10.050
  1 A     1 B     2 A     2 B     3 B     3 A     4 A     4 B                  
-10.031 -10.031  -7.809  -7.809  -5.774  -5.774  -5.770  -5.770
  5 B     5 A     6 A     6 B     7 A     7 B     8 B     8 A                  
 -5.765  -5.765  -0.720  -0.699  -0.600  -0.578  -0.567  -0.532
  9 B     9 A    10 A    10 B    11 A    11 B    12 A    12 B                  
 -0.440  -0.414  -0.388  -0.367  -0.361  -0.314  -0.259  -0.254
 13 A    13 B    14 A    14 B    15 A    15 B    16 B    16 A                  
 -0.240  -0.239  -0.231  -0.209  -0.200  -0.191  -0.176  -0.107
 17 B    17 A    18 A    19 A    18 B    19 B    20 A    21 A                  
 -0.099  -0.094  -0.036
 20 B    22 A    21 B                                                          
 -- Virtual --                   
  0.093   0.096   0.103   0.110   0.113   0.124   0.134   0.144
 23 A    22 B    24 A    23 B    25 A    26 A    24 B    25 B                  
  0.154   0.158   0.162   0.170   0.171   0.177   0.186   0.186
 26 B    27 A    28 A    27 B    29 A    28 B    29 B    30 A                  
  0.192   0.199   0.206   0.210   0.211   0.222   0.223   0.226
 31 A    30 B    32 A    31 B    33 A    34 A    32 B    35 A                  
  0.230   0.239   0.239   0.245   0.246   0.251   0.256   0.261
 33 B    34 B    36 A    37 A    35 B    36 B    37 B    38 A                  
  0.270   0.277   0.281   0.283   0.283   0.300   0.301   0.307
 39 A    38 B    40 A    39 B    41 A    40 B    42 A    43 A                  
  0.316   0.323   0.328   0.329   0.333   0.338   0.345   0.355
 41 B    42 B    43 B    44 A    44 B    45 A    46 A    45 B                  
  0.371   0.383   0.385   0.392   0.404   0.411   0.424   0.427
 46 B    47 A    47 B    48 A    49 A    48 B    50 A    49 B                  
  0.454   0.454   0.479   0.483   0.488   0.509   0.541   0.560
 51 A    50 B    52 A    51 B    53 A    52 B    54 A    53 B                  
  0.599   0.608   0.666   0.668   0.689   0.699   0.710   0.726
 54 B    55 A    56 A    55 B    57 A    56 B    57 B    58 A                  
  0.760   0.767   0.770   0.809   0.821   0.824   0.830   0.834
 59 A    58 B    60 A    59 B    60 B    61 A    61 B    62 A                  
  0.847   0.871   0.877   0.887   0.900   0.913   0.924   0.932
 63 A    62 B    64 A    63 B    64 B    65 A    66 A    65 B                  
  0.977   0.986   0.991   1.008   1.019   1.068   1.089   1.104
 66 B    67 A    67 B    68 A    69 A    68 B    70 A    69 B                  
  1.105   1.110   1.112   1.120   1.128   1.135   1.143   1.170
 71 A    72 A    70 B    71 B    72 B    73 A    73 B    74 B                  
  1.179   1.197   1.212   1.245   1.252   1.266   1.289   1.296
 74 A    75 A    76 A    77 A    75 B    76 B    77 B    78 A                  
  1.326   1.327   1.353   1.403   1.408   1.475   1.499   1.512
 79 A    78 B    80 A    81 A    79 B    80 B    82 A    81 B                  
  1.519   1.521   1.538   1.630   1.630   1.675   1.687   1.742
 83 A    82 B    84 A    83 B    85 A    84 B    85 B    86 A                  
  1.846   1.853   1.895   1.986   1.998   2.030   2.047   2.063
 87 A    86 B    88 A    89 A    87 B    90 A    88 B    91 A                  
  2.077   2.107   2.127   2.164   2.190   2.214   2.237   2.270
 89 B    92 A    90 B    93 A    91 B    94 A    92 B    93 B                  
  2.305   2.315   2.326   2.380   2.388   2.427   2.499   2.515
 95 A    96 A    94 B    97 A    95 B    96 B    98 A    97 B                  
  2.519   2.565   2.607   2.615   2.617   2.647   2.668   2.684
 99 A    98 B   100 A   101 A    99 B   100 B   102 A   103 A                  
  2.686   2.727   2.742   2.764   2.821   2.842   2.876   2.898
101 B   102 B   104 A   103 B   105 A   106 A   104 B   105 B                  
  3.013   3.021   3.065   3.111   3.297   3.357   3.414   3.420
107 A   106 B   108 A   107 B   108 B   109 A   109 B   110 A                  
  3.556   3.579   3.866   3.889   4.132   4.137   4.419   4.459
111 A   110 B   112 A   111 B   112 B   113 A   114 A   113 B                  
  4.463   4.480   4.585   4.683   4.815   4.871
115 A   114 B   116 A   115 B   117 A   116 B                                  
 --------------------------------------------------------------
 
          Ground-State Mulliken Net Atomic Charges

     Atom                 Charge (a.u.)    Spin (a.u.)
  --------------------------------------------------------
      1 S                    -0.267868       0.115637
      2 C                    -0.094644       0.237114
      3 C                    -0.330398      -0.077412
      4 C                     0.120437       0.233092
      5 C                    -0.233977       0.003422
      6 H                     0.089268      -0.003102
      7 C                    -0.233977       0.003422
      8 S                    -0.267868       0.115637
      9 C                     0.120437       0.233092
     10 C                    -0.094644       0.237114
     11 C                    -0.330398      -0.077412
     12 H                     0.072890       0.003683
     13 H                     0.144293      -0.012434
     14 H                     0.072890       0.003683
     15 H                     0.144293      -0.012434
     16 H                     0.089268      -0.003102
  --------------------------------------------------------
  Sum of atomic charges =    -1.000000
  Sum of spin   charges =     1.000000

 -----------------------------------------------------------------
                    Cartesian Multipole Moments
 -----------------------------------------------------------------
    Charge (ESU x 10^10)
                -4.8032
    Dipole Moment (Debye)
         X      -0.0000      Y       0.0000      Z       0.1815
       Tot       0.1815
    Quadrupole Moments (Debye-Ang)
        XX     -99.8045     XY       0.9729     YY     -84.1284
        XZ       0.0000     YZ      -0.0000     ZZ     -87.0545
    Octopole Moments (Debye-Ang^2)
       XXX      -0.0000    XXY      -0.0000    XYY      -0.0000
       YYY       0.0000    XXZ      -0.6361    XYZ       3.2662
       YYZ       2.0193    XZZ       0.0000    YZZ      -0.0000
       ZZZ      -3.6360
    Hexadecapole Moments (Debye-Ang^3)
      XXXX   -2504.8820   XXXY     -29.8017   XXYY    -520.6913
      XYYY      10.9453   YYYY    -673.1224   XXXZ       0.0000
      XXYZ       0.0000   XYYZ       0.0000   YYYZ      -0.0000
      XXZZ    -496.5709   XYZZ      -6.6255   YYZZ    -153.4697
      XZZZ       0.0000   YZZZ      -0.0000   ZZZZ    -178.2515
 -----------------------------------------------------------------
 Calculating analytic gradient of the SCF energy
 Gradient of SCF Energy
            1           2           3           4           5           6
    1  -0.0002201   0.0003957  -0.0000794   0.0000524   0.0003144   0.0000838
    2   0.0006931   0.0000754  -0.0002739  -0.0012156   0.0009866   0.0001879
    3  -0.0014659   0.0007073  -0.0001692   0.0059248  -0.0035124  -0.0006814
            7           8           9          10          11          12
    1  -0.0003144   0.0002201  -0.0000524  -0.0003957   0.0000794  -0.0000255
    2  -0.0009866  -0.0006931   0.0012156  -0.0000754   0.0002739  -0.0000106
    3  -0.0035124  -0.0014659   0.0059248   0.0007073  -0.0001692  -0.0000256
           13          14          15          16
    1  -0.0000119   0.0000255   0.0000119  -0.0000838
    2   0.0000971   0.0000106  -0.0000971  -0.0001879
    3  -0.0007776  -0.0000256  -0.0007776  -0.0006814
 Max gradient component =       5.925E-03
 RMS gradient           =       1.508E-03
 Gradient time:  CPU 1.83 s  wall 1.83 s
 Geometry Optimization Parameters
   NAtoms,    NIC,     NZ,  NCons,   NDum,   NFix, NCnnct, MaxDiis
       16     111       0       1       0       0       0       0

 Cartesian Hessian Update
 Hessian Updated using BFGS Update


** CONSTRAINED OPTIMIZATION IN DELOCALIZED INTERNAL COORDINATES **
   Searching for a Minimum

   Optimization Cycle:   2

                       Coordinates (Angstroms)
     ATOM                X               Y               Z
      1  S         1.8608304417   -1.2046986647   -0.2841552364
      2  C         3.2447763320   -0.1337527681   -0.0376667307
      3  C         2.8204744215    1.1489411390    0.2586982153
      4  C         1.4187220748    1.3011336548    0.3295234781
      5  C         0.6958682319    0.1199091049    0.0505029218
      6  H         0.9221026300    2.2313690289    0.5850478756
      7  C        -0.6958682319   -0.1199091049    0.0505029218
      8  S        -1.8608304417    1.2046986647   -0.2841552364
      9  C        -1.4187220748   -1.3011336548    0.3295234781
     10  C        -3.2447763320    0.1337527681   -0.0376667307
     11  C        -2.8204744215   -1.1489411390    0.2586982153
     12  H        -3.5152874749   -1.9629720187    0.4522037748
     13  H         4.2523987574   -0.5164889437   -0.1221608029
     14  H         3.5152874749    1.9629720187    0.4522037748
     15  H        -4.2523987574    0.5164889437   -0.1221608029
     16  H        -0.9221026300   -2.2313690289    0.5850478756
   Point Group: c2    Number of degrees of freedom:    22


   Energy is  -1104.842882831

              Constraints and their Current Values
                                        Value     Constraint
   Dihedral:        4   5   7   9     -150.000     -150.000
 Hessian Updated using BFGS Update

 17 Hessian modes will be used to form the next step
  Hessian Eigenvalues:
     0.020072    0.052053    0.159973    0.160000    0.160245    0.221121
     0.238639    0.251672    0.265172    0.283976    0.350979    0.354200
     0.358568    0.414278    0.425747    0.458288    0.471372

 Minimum Search - Taking Simple RFO Step
 Searching for Lamda that Minimizes Along All modes
 Value Taken    Lamda =  -0.00080192
 Step Taken.  Stepsize is  0.195189

                             Maximum     Tolerance    Cnvgd?
         Gradient           0.002238      0.000300      NO
         Displacement       0.099194      0.001200      NO
         Energy change     -0.000931      0.000001      NO


 New Cartesian Coordinates Obtained by Inverse Iteration

 Displacement from previous Coordinates is:  0.490144
 ----------------------------------------------------------------
             Standard Nuclear Orientation (Angstroms)
    I     Atom           X                Y                Z
[...]
      3 C                    -0.354944      -0.084086
      4 C                     0.162408       0.263249
      5 C                    -0.238817      -0.017395
      6 H                     0.088643      -0.001831
      7 C                    -0.238817      -0.017395
      8 S                    -0.275786       0.102976
      9 C                     0.162408       0.263249
     10 C                    -0.097689       0.245225
     11 C                    -0.354944      -0.084086
     12 H                     0.072060       0.003974
     13 H                     0.144125      -0.012111
     14 H                     0.072060       0.003974
     15 H                     0.144125      -0.012111
     16 H                     0.088643      -0.001831
  --------------------------------------------------------
  Sum of atomic charges =    -1.000000
  Sum of spin   charges =     1.000000

 -----------------------------------------------------------------
                    Cartesian Multipole Moments
 -----------------------------------------------------------------
    Charge (ESU x 10^10)
                -4.8032
    Dipole Moment (Debye)
         X       0.0000      Y       0.0000      Z       0.3237
       Tot       0.3237
    Quadrupole Moments (Debye-Ang)
        XX     -99.7750     XY       0.8555     YY     -84.0787
        XZ       0.0000     YZ      -0.0000     ZZ     -87.0995
    Octopole Moments (Debye-Ang^2)
       XXX       0.0000    XXY      -0.0000    XYY       0.0000
       YYY       0.0000    XXZ       3.7387    XYZ       2.6271
       YYZ       1.6986    XZZ       0.0000    YZZ       0.0000
       ZZZ      -4.6482
    Hexadecapole Moments (Debye-Ang^3)
      XXXX   -2501.7012   XXXY     -28.8750   XXYY    -519.4937
      XYYY      14.1738   YYYY    -680.8063   XXXZ       0.0000
      XXYZ       0.0000   XYYZ       0.0000   YYYZ      -0.0000
      XXZZ    -494.0106   XYZZ      -3.7261   YYZZ    -155.3569
      XZZZ       0.0000   YZZZ      -0.0000   ZZZZ    -167.4851
 -----------------------------------------------------------------
 Calculating analytic gradient of the SCF energy
 Gradient of SCF Energy
            1           2           3           4           5           6
    1  -0.0000225   0.0000177  -0.0000043   0.0002589  -0.0005905   0.0000076
    2   0.0000071   0.0000134  -0.0000329  -0.0014060   0.0032428  -0.0000065
    3  -0.0000055  -0.0000419   0.0000804   0.0053599  -0.0053943   0.0000214
            7           8           9          10          11          12
    1   0.0005905   0.0000225  -0.0002589  -0.0000177   0.0000043  -0.0000046
    2  -0.0032428  -0.0000071   0.0014060  -0.0000134   0.0000329  -0.0000032
    3  -0.0053943  -0.0000055   0.0053599  -0.0000419   0.0000804  -0.0000393
           13          14          15          16
    1  -0.0000036   0.0000046   0.0000036  -0.0000076
    2  -0.0000146   0.0000032   0.0000146   0.0000065
    3   0.0000193  -0.0000393   0.0000193   0.0000214
 Max gradient component =       5.394E-03
 RMS gradient           =       1.717E-03
 Gradient time:  CPU 1.91 s  wall 1.83 s
 Geometry Optimization Parameters
   NAtoms,    NIC,     NZ,  NCons,   NDum,   NFix, NCnnct, MaxDiis
       16     111       0       1       0       0       0       0

 Cartesian Hessian Update
 Hessian Updated using BFGS Update


** CONSTRAINED OPTIMIZATION IN DELOCALIZED INTERNAL COORDINATES **
   Searching for a Minimum

   Optimization Cycle:   8

                       Coordinates (Angstroms)
     ATOM                X               Y               Z
      1  S         1.8663541354   -1.2201288463   -0.2348019567
      2  C         3.2417590106   -0.1442678279    0.0356401458
      3  C         2.8103095030    1.1500184850    0.2623073738
      4  C         1.4084833178    1.3132226917    0.2389605396
      5  C         0.6940127769    0.1262345665   -0.0396984103
      6  H         0.9040994541    2.2500286637    0.4517163892
      7  C        -0.6940127769   -0.1262345665   -0.0396984103
      8  S        -1.8663541354    1.2201288463   -0.2348019567
      9  C        -1.4084833178   -1.3132226917    0.2389605396
     10  C        -3.2417590106    0.1442678279    0.0356401458
     11  C        -2.8103095030   -1.1500184850    0.2623073738
     12  H        -3.4980137396   -1.9667084948    0.4691692353
     13  H         4.2482884051   -0.5388758772    0.0487001789
     14  H         3.4980137396    1.9667084948    0.4691692353
     15  H        -4.2482884051    0.5388758772    0.0487001789
     16  H        -0.9040994541   -2.2500286637    0.4517163892
   Point Group: c2    Number of degrees of freedom:    22


   Energy is  -1104.843473857

              Constraints and their Current Values
                                        Value     Constraint
   Dihedral:        4   5   7   9     -150.000     -150.000
 Hessian Updated using BFGS Update

 21 Hessian modes will be used to form the next step
  Hessian Eigenvalues:
     0.011423    0.016314    0.034425    0.045004    0.045042    0.053523
     0.159358    0.160007    0.160163    0.221677    0.245831    0.252010
     0.262526    0.284149    0.351062    0.354185    0.358934    0.413057
     0.429506    0.456210    0.471867

 Minimum Search - Taking Simple RFO Step
 Searching for Lamda that Minimizes Along All modes
 Value Taken    Lamda =   0.00000000
 Step Taken.  Stepsize is  0.002699

                             Maximum     Tolerance    Cnvgd?
         Gradient           0.000052      0.000300     YES
         Displacement       0.001874      0.001200      NO
         Energy change     -0.000000      0.000001     YES

 Final energy is   -1104.84347385690     


 ******************************
 **  OPTIMIZATION CONVERGED  **
 ******************************

                       Coordinates (Angstroms)
     ATOM                X               Y               Z
      1  S         1.8663541354   -1.2201288463   -0.2348019567
      2  C         3.2417590106   -0.1442678279    0.0356401458
      3  C         2.8103095030    1.1500184850    0.2623073738
      4  C         1.4084833178    1.3132226917    0.2389605396
      5  C         0.6940127769    0.1262345665   -0.0396984103
      6  H         0.9040994541    2.2500286637    0.4517163892
      7  C        -0.6940127769   -0.1262345665   -0.0396984103
      8  S        -1.8663541354    1.2201288463   -0.2348019567
      9  C        -1.4084833178   -1.3132226917    0.2389605396
     10  C        -3.2417590106    0.1442678279    0.0356401458
     11  C        -2.8103095030   -1.1500184850    0.2623073738
     12  H        -3.4980137396   -1.9667084948    0.4691692353
     13  H         4.2482884051   -0.5388758772    0.0487001789
     14  H         3.4980137396    1.9667084948    0.4691692353
     15  H        -4.2482884051    0.5388758772    0.0487001789
     16  H        -0.9040994541   -2.2500286637    0.4517163892

Z-matrix Print:
$molecule
-1 2
S 
C  1 1.767019
H  2 1.081197 1 120.281808
C  2 1.383005 1 110.613164 3 177.543974 0
H  4 1.087525 2 122.458569 1 -178.871049 0
C  4 1.411488 2 114.539927 1 -0.517105 0
H  6 1.085022 4 123.935967 2 -176.491318 0
C  6 1.413174 4 114.095608 2 1.221331 0
C  8 1.410800 6 130.370625 4 -174.252419 0
C  9 1.413174 8 130.370625 6 149.999994 0
H  10 1.085022 9 121.927678 8 3.511609 0
C  10 1.411488 9 114.095608 8 -174.252419 0
H  12 1.087525 10 122.979868 9 179.565622 0
C  12 1.383005 10 114.539927 9 1.221331 0
H  14 1.081197 12 129.050228 10 176.751649 0
S  14 1.767019 12 110.613164 10 -0.517105 0
$end

 
 --------------------------------------------------------------
             Orbital Energies (a.u.) and Symmetries
 --------------------------------------------------------------
 
 Alpha MOs, Unrestricted
 -- Occupied --                  
-88.751 -88.751 -10.065 -10.064 -10.057 -10.057 -10.049 -10.049
  1 A     1 B     2 A     2 B     3 B     3 A     4 A     4 B                  
-10.033 -10.033  -7.810  -7.810  -5.774  -5.774  -5.771  -5.771
  5 B     5 A     6 A     6 B     7 A     7 B     8 B     8 A                  
 -5.767  -5.767  -0.724  -0.702  -0.606  -0.582  -0.571  -0.536
  9 B     9 A    10 A    10 B    11 A    11 B    12 A    12 B                  
 -0.447  -0.417  -0.390  -0.370  -0.363  -0.316  -0.261  -0.256
 13 A    13 B    14 A    14 B    15 A    15 B    16 B    16 A                  
 -0.242  -0.241  -0.240  -0.212  -0.209  -0.194  -0.177  -0.125
 17 A    17 B    18 A    19 A    18 B    19 B    20 A    21 A                  
 -0.109  -0.103  -0.052   0.049
 20 B    22 A    21 B    23 A                                                  
 -- Virtual --                   
  0.094   0.096   0.111   0.113   0.124   0.135   0.140   0.147
 24 A    22 B    23 B    25 A    26 A    24 B    25 B    26 B                  
  0.158   0.162   0.169   0.172   0.176   0.182   0.186   0.191
 27 A    28 A    29 A    27 B    28 B    30 A    29 B    31 A                  
  0.199   0.205   0.207   0.210   0.221   0.222   0.227   0.230
 30 B    32 A    31 B    33 A    34 A    32 B    35 A    33 B                  
  0.236   0.238   0.242   0.244   0.249   0.253   0.263   0.266
 34 B    36 A    37 A    35 B    36 B    37 B    38 A    39 A                  
  0.275   0.282   0.283   0.287   0.295   0.300   0.306   0.313
 38 B    39 B    40 A    41 A    40 B    42 A    43 A    41 B                  
  0.321   0.331   0.331   0.335   0.337   0.342   0.357   0.372
 42 B    44 A    43 B    45 A    44 B    46 A    45 B    46 B                  
  0.378   0.389   0.393   0.405   0.410   0.415   0.424   0.451
 47 B    47 A    48 A    49 A    48 B    50 A    49 B    50 B                  
  0.452   0.479   0.482   0.487   0.506   0.542   0.554   0.597
 51 A    52 A    51 B    53 A    52 B    54 A    53 B    54 B                  
  0.609   0.663   0.668   0.689   0.703   0.708   0.729   0.752
 55 A    55 B    56 A    57 A    56 B    57 B    58 A    59 A                  
  0.769   0.779   0.797   0.805   0.816   0.821   0.823   0.850
 58 B    60 A    59 B    60 B    61 A    61 B    62 A    63 A                  
  0.866   0.877   0.886   0.897   0.903   0.925   0.931   0.980
 62 B    64 A    63 B    64 B    65 A    66 A    65 B    66 B                  
  0.982   0.983   1.006   1.012   1.066   1.086   1.096   1.106
 67 A    67 B    68 A    69 A    68 B    70 A    69 B    71 A                  
  1.107   1.113   1.120   1.127   1.137   1.141   1.170   1.178
 72 A    70 B    71 B    72 B    73 A    73 B    74 B    74 A                  
  1.191   1.205   1.244   1.252   1.262   1.284   1.293   1.313
 75 A    76 A    77 A    75 B    76 B    77 B    78 A    79 A                  
  1.325   1.359   1.400   1.403   1.472   1.501   1.507   1.515
 78 B    80 A    81 A    79 B    80 B    82 A    81 B    82 B                  
  1.521   1.538   1.618   1.631   1.660   1.670   1.759   1.836
 83 A    84 A    85 A    83 B    84 B    85 B    86 A    87 A                  
  1.844   1.880   1.985   2.001   2.020   2.046   2.059   2.080
 86 B    88 A    89 A    87 B    90 A    88 B    91 A    89 B                  
  2.103   2.113   2.163   2.187   2.211   2.228   2.272   2.295
 92 A    90 B    93 A    91 B    94 A    92 B    93 B    95 A                  
  2.307   2.322   2.374   2.380   2.418   2.496   2.515   2.517
 96 A    94 B    97 A    95 B    96 B    98 A    97 B    99 A                  
  2.563   2.601   2.603   2.615   2.647   2.664   2.685   2.686
 98 B   100 A    99 B   101 A   100 B   102 A   103 A   101 B                  
  2.724   2.738   2.763   2.822   2.839   2.873   2.895   3.010
102 B   104 A   103 B   105 A   106 A   104 B   105 B   107 A                  
  3.014   3.066   3.111   3.296   3.357   3.413   3.419   3.555
106 B   108 A   107 B   108 B   109 A   109 B   110 A   111 A                  
  3.577   3.865   3.887   4.130   4.137   4.414   4.454   4.464
110 B   112 A   111 B   112 B   113 A   114 A   113 B   115 A                  
  4.478   4.577   4.679   4.813   4.868
114 B   116 A   115 B   117 A   116 B                                          
 
 Beta MOs, Unrestricted
 -- Occupied --                  
-88.750 -88.750 -10.063 -10.063 -10.054 -10.054 -10.050 -10.050
  1 A     1 B     2 A     2 B     3 B     3 A     4 A     4 B                  
-10.031 -10.031  -7.809  -7.809  -5.774  -5.774  -5.770  -5.770
  5 B     5 A     6 A     6 B     7 A     7 B     8 B     8 A                  
 -5.765  -5.765  -0.720  -0.699  -0.601  -0.579  -0.567  -0.532
  9 B     9 A    10 A    10 B    11 A    11 B    12 A    12 B                  
 -0.440  -0.415  -0.388  -0.367  -0.362  -0.314  -0.259  -0.254
 13 A    13 B    14 A    14 B    15 A    15 B    16 B    16 A                  
 -0.240  -0.239  -0.231  -0.210  -0.200  -0.191  -0.175  -0.109
 17 B    17 A    18 A    19 A    18 B    19 B    20 A    21 A                  
 -0.099  -0.094  -0.034
 20 B    22 A    21 B                                                          
 -- Virtual --                   
  0.093   0.096   0.102   0.110   0.113   0.124   0.135   0.146
 23 A    22 B    24 A    23 B    25 A    26 A    24 B    25 B                  
  0.154   0.158   0.163   0.170   0.173   0.177   0.186   0.187
 26 B    27 A    28 A    29 A    27 B    28 B    29 B    30 A                  
  0.193   0.199   0.205   0.212   0.212   0.223   0.223   0.228
 31 A    30 B    32 A    33 A    31 B    34 A    32 B    35 A                  
  0.230   0.237   0.238   0.243   0.245   0.252   0.255   0.264
 33 B    34 B    36 A    37 A    35 B    36 B    37 B    38 A                  
  0.267   0.275   0.283   0.284   0.288   0.298   0.301   0.306
 39 A    38 B    40 A    39 B    41 A    40 B    42 A    43 A                  
  0.316   0.322   0.331   0.331   0.336   0.338   0.344   0.356
 41 B    42 B    44 A    43 B    45 A    44 B    46 A    45 B                  
  0.373   0.378   0.389   0.394   0.406   0.411   0.416   0.428
 46 B    47 B    47 A    48 A    49 A    48 B    50 A    49 B                  
  0.453   0.454   0.480   0.483   0.489   0.507   0.544   0.557
 50 B    51 A    52 A    51 B    53 A    52 B    54 A    53 B                  
  0.599   0.611   0.665   0.671   0.691   0.704   0.710   0.731
 54 B    55 A    55 B    56 A    57 A    56 B    57 B    58 A                  
  0.753   0.770   0.783   0.799   0.816   0.821   0.826   0.832
 59 A    58 B    60 A    59 B    60 B    61 A    61 B    62 A                  
  0.853   0.870   0.878   0.887   0.902   0.911   0.927   0.933
 63 A    62 B    64 A    63 B    64 B    65 A    66 A    65 B                  
  0.982   0.989   0.990   1.012   1.014   1.068   1.088   1.099
 66 B    67 A    67 B    68 A    69 A    68 B    70 A    69 B                  
  1.107   1.109   1.114   1.123   1.128   1.138   1.142   1.172
 71 A    72 A    70 B    71 B    72 B    73 A    73 B    74 B                  
  1.179   1.193   1.209   1.247   1.254   1.265   1.286   1.294
 74 A    75 A    76 A    77 A    75 B    76 B    77 B    78 A                  
  1.319   1.327   1.361   1.405   1.405   1.475   1.503   1.510
 79 A    78 B    80 A    81 A    79 B    80 B    82 A    81 B                  
  1.521   1.527   1.541   1.620   1.633   1.664   1.673   1.763
 82 B    83 A    84 A    85 A    83 B    84 B    85 B    86 A                  
  1.846   1.855   1.888   1.987   2.003   2.026   2.047   2.061
 87 A    86 B    88 A    89 A    87 B    90 A    88 B    91 A                  
  2.083   2.105   2.117   2.167   2.189   2.214   2.234   2.279
 89 B    92 A    90 B    93 A    91 B    94 A    92 B    93 B                  
  2.303   2.314   2.326   2.378   2.388   2.423   2.501   2.517
 95 A    96 A    94 B    97 A    95 B    96 B    98 A    97 B                  
  2.519   2.564   2.606   2.608   2.617   2.650   2.667   2.688
 99 A    98 B   100 A    99 B   101 A   100 B   102 A   103 A                  
  2.689   2.729   2.742   2.766   2.824   2.842   2.877   2.897
101 B   102 B   104 A   103 B   105 A   106 A   104 B   105 B                  
  3.013   3.017   3.068   3.112   3.297   3.358   3.413   3.419
107 A   106 B   108 A   107 B   108 B   109 A   109 B   110 A                  
  3.556   3.578   3.866   3.888   4.132   4.138   4.418   4.458
111 A   110 B   112 A   111 B   112 B   113 A   114 A   113 B                  
  4.466   4.480   4.583   4.684   4.816   4.871
115 A   114 B   116 A   115 B   117 A   116 B                                  
 --------------------------------------------------------------
 
          Ground-State Mulliken Net Atomic Charges

     Atom                 Charge (a.u.)    Spin (a.u.)
  --------------------------------------------------------
      1 S                    -0.275786       0.102976
      2 C                    -0.097689       0.245225
      3 C                    -0.354944      -0.084086
      4 C                     0.162408       0.263249
      5 C                    -0.238817      -0.017395
      6 H                     0.088643      -0.001831
      7 C                    -0.238817      -0.017395
      8 S                    -0.275786       0.102976
      9 C                     0.162408       0.263249
     10 C                    -0.097689       0.245225
     11 C                    -0.354944      -0.084086
     12 H                     0.072060       0.003974
     13 H                     0.144125      -0.012111
     14 H                     0.072060       0.003974
     15 H                     0.144125      -0.012111
     16 H                     0.088643      -0.001831
  --------------------------------------------------------
  Sum of atomic charges =    -1.000000
  Sum of spin   charges =     1.000000

 -----------------------------------------------------------------
                    Cartesian Multipole Moments
 -----------------------------------------------------------------
    Charge (ESU x 10^10)
                -4.8032
    Dipole Moment (Debye)
         X       0.0000      Y       0.0000      Z       0.3237
       Tot       0.3237
    Quadrupole Moments (Debye-Ang)
        XX     -99.7750     XY       0.8555     YY     -84.0787
        XZ       0.0000     YZ      -0.0000     ZZ     -87.0995
    Octopole Moments (Debye-Ang^2)
       XXX       0.0000    XXY      -0.0000    XYY       0.0000
       YYY       0.0000    XXZ       3.7387    XYZ       2.6271
       YYZ       1.6986    XZZ       0.0000    YZZ       0.0000
       ZZZ      -4.6482
    Hexadecapole Moments (Debye-Ang^3)
      XXXX   -2501.7012   XXXY     -28.8750   XXYY    -519.4937
      XYYY      14.1738   YYYY    -680.8063   XXXZ       0.0000
      XXYZ       0.0000   XYYZ       0.0000   YYYZ      -0.0000
      XXZZ    -494.0106   XYZZ      -3.7261   YYZZ    -155.3569
      XZZZ       0.0000   YZZZ      -0.0000   ZZZZ    -167.4851
 -----------------------------------------------------------------
Archival summary:
1\1\nid01047\OPT\ProcedureUnspecified\BasisUnspecified\286(1-,2)\WedSep700:18:132016WedSep700:18:132016\0\\#,OPT,ProcedureUnspecified,BasisUnspecified,\\-1,2\S\C,1,1.76702\H,2,1.0812,1,120.282\C,2,1.38301,1,110.613,3,177.544,0\H,4,1.08753,2,122.459,1,-178.871,0\C,4,1.41149,2,114.54,1,-0.517105,0\H,6,1.08502,4,123.936,2,-176.491,0\C,6,1.41317,4,114.096,2,1.22133,0\C,8,1.4108,6,130.371,4,-174.252,0\C,9,1.41317,8,130.371,6,150,0\H,10,1.08502,9,121.928,8,3.51161,0\C,10,1.41149,9,114.096,8,-174.252,0\H,12,1.08753,10,122.98,9,179.566,0\C,12,1.38301,10,114.54,9,1.22133,0\H,14,1.0812,12,129.05,10,176.752,0\S,14,1.76702,12,110.613,10,-0.517105,0\\\@

 Total job time:  134.14s(wall), 145.52s(cpu) 
 Wed Sep  7 00:18:13 2016

        *************************************************************
        *                                                           *
        *  Thank you very much for using Q-Chem.  Have a nice day.  *
        *                                                           *
        *************************************************************


0 sent ACK to 0 
now end server 0 ... 
