srun -N 1 --ntasks-per-node 16 --nodelist nid01048 /global/project/projectdirs/jcesr/qchem/qc44/cnl_qc441/dist/exe/qcprog.cori.exe .pt_charged_dft_110.0.in.34610.qcin.1 /dev/shm/eg_qchem/qchem34610/
Process 0 of 16 is on nid01048 - thread support 0
Process 1 of 16 is on nid01048 - thread support 0
Process 2 of 16 is on nid01048 - thread support 0
Process 3 of 16 is on nid01048 - thread support 0
Process 4 of 16 is on nid01048 - thread support 0
Process 5 of 16 is on nid01048 - thread support 0
Process 6 of 16 is on nid01048 - thread support 0
Process 15 of 16 is on nid01048 - thread support 0
initial socket setup ...start
initial socket setup ...done 
now start server 0 ... 
nid01048 10.128.4
Q-Chem Developer Version! Running on 10.128.4.*
                  Welcome to Q-Chem
     A Quantum Leap Into The Future Of Chemistry


 Q-Chem 4.4, Q-Chem, Inc., Pleasanton, CA (2016)

 Y. Shao,  Z. Gan,  E. Epifanovsky,  A. T. B. Gilbert,  M. Wormit,  
 J. Kussmann,  A. W. Lange,  A. Behn,  J. Deng,  X. Feng,  D. Ghosh,  
 M. Goldey,  P. R. Horn,  L. D. Jacobson,  I. Kaliman,  F.Rob,  
 R. Z. Khaliullin,  T. Kus,  A. Landau,  J. Liu,  E. I. Proynov,  Y. M. Rhee,  
 R. M. Richard,  M. A. Rohrdanz,  R. P. Steele,  E. J. Sundstrom,  
 H. L. Woodcock III,  P. M. Zimmerman,  D. Zuev,  B. Albrecht,  E. Alguire,  
 B. Austin,  S. A. Baeppler,  G. J. O. Beran,  Y. A. Bernard,  E. Berquist,  
 K. Brandhorst,  K. B. Bravaya,  S. T. Brown,  D. Casanova,  C.-M. Chang,  
 Y. Chen,  S. H. Chien,  K. D. Closser,  M. P. Coons,  D. L. Crittenden,  
 S. Dasgupta,  M. Diedenhofen,  R. A. DiStasio Jr.,  H. Do,  A. D. Dutoi,  
 R. G. Edgar,  P.-T. Fang,  S. Fatehi,  Q. Feng,  L. Fusti-Molnar,  
 A. Ghysels,  A. Golubeva-Zadorozhnaya,  J. Gomes,  A. Gunina,  
 M. W. D. Hanson-Heine,  P. H. P. Harbach,  A. W. Hauser,  E. G. Hohenstein,  
 Z. C. Holden,  K. Hui,  T.-C. Jagau,  H. Ji,  B. Kaduk,  K. Khistyaev,  
 Jaehoon Kim,  Jihan Kim,  R. A. King,  P. Klunzinger,  D. Kosenkov,  
 T. Kowalczyk,  C. M. Krauter,  A. Kunitsa,  K. U. Lao,  A. Laurent,  
 K. V. Lawler,  D. Lefrancois,  S. Lehtola,  S. V. Levchenko,  C. Y. Lin,  
 Y.-S. Lin,  F. Liu,  E. Livshits,  R. C. Lochan,  A. Luenser,  P. Manohar,  
 S. F. Manzer,  S.-P. Mao,  Y. Mao,  N. Mardirossian,  A. V. Marenich,  
 L. A. Martinez-Martinez,  S. A. Maurer,  N. J. Mayhall,  J.-M. Mewes,  
 A. F. Morrison,  K. Nanda,  C. M. Oana,  R. Olivares-Amaya,  D. P. O'Neill,  
 J. A. Parkhill,  T. M. Perrine,  R. Peverati,  P. A. Pieniazek,  F. Plasser,  
 A. Prociuk,  D. R. Rehn,  E. Rosta,  N. J. Russ,  N. Sergueev,  
 S. M. Sharada,  S. Sharma,  D. W. Small,  A. Sodt,  T. Stauch,  T. Stein,  
 D. Stuck,  Y.-C. Su,  A. J. W. Thom,  T. Tsuchimochi,  L. Vogt,  O. Vydrov,  
 T. Wang,  M. A. Watson,  J. Wenzel,  A. White,  C. F. Williams,  
 V. Vanovschi,  S. Yeganeh,  S. R. Yost,  Z.-Q. You,  I. Y. Zhang,  X. Zhang,  
 Y. Zhao,  B. R. Brooks,  G. K. L. Chan,  D. M. Chipman,  C. J. Cramer,  
 W. A. Goddard III,  M. S. Gordon,  W. J. Hehre,  A. Klamt,  
 H. F. Schaefer III,  M. W. Schmidt,  C. D. Sherrill,  D. G. Truhlar,  
 A. Warshel,  X. Xu,  A. Aspuru-Guzik,  R. Baer,  A. T. Bell,  N. A. Besley,  
 J.-D. Chai,  A. Dreuw,  B. D. Dunietz,  T. R. Furlani,  S. R. Gwaltney,  
 C.-P. Hsu,  Y. Jung,  J. Kong,  D. S. Lambrecht,  W. Liang,  C. Ochsenfeld,  
 V. A. Rassolov,  L. V. Slipchenko,  J. E. Subotnik,  T. Van Voorhis,  
 J. M. Herbert,  A. I. Krylov,  P. M. W. Gill,  M. Head-Gordon

 Contributors to earlier versions of Q-Chem not listed above: 
 R. D. Adamson,  J. Baker,  E. F. C. Byrd,  A. K. Chakraborty,  C.-L. Cheng,  
 H. Dachsel,  R. J. Doerksen,  G. Hawkins,  A. Heyden,  S. Hirata,  
 G. Kedziora,  F. J. Keil,  C. Kelley,  P. P. Korambath,  W. Kurlancheek,  
 A. M. Lee,  M. S. Lee,  D. Liotard,  I. Lotan,  P. E. Maslen,  N. Nair,  
 D. Neuhauser,  R. Olson,  B. Peters,  J. Ritchie,  N. E. Schultz,  
 N. Shenvi,  A. C. Simmonett,  K. S. Thanthiriwatte,  Q. Wu,  W. Zhang

 Please cite Q-Chem as follows:
 Y. Shao et al., Mol. Phys. 113, 184-215 (2015)
 DOI: 10.1080/00268976.2014.952696

 Q-Chem 4.4.1 for Intel X86 EM64T Linux

 Parts of Q-Chem use Armadillo 5.200.1 (Boston Tea Smuggler).
 http://arma.sourceforge.net/

 Q-Chem begins on Wed Sep  7 00:30:18 2016  

Host: nid01047
0

     Scratch files written to /dev/shm/eg_qchem/qchem34610.0//
 Parallel job on  16  processors

Checking the input file for inconsistencies... 	...done.

--------------------------------------------------------------
User input:
--------------------------------------------------------------
$comment
<SCF Fix Strategy>{
    "current_method_id": 6, 
    "methods": [
        "increase_iter", 
        "diis_gdm", 
        "gwh", 
        "rca", 
        "gdm", 
        "core+gdm", 
        "fon"
    ], 
    "version": 2.0
}</SCF Fix Strategy>
$end


$molecule
 -1  2
 S           1.83794975       -1.27576249       -0.14871336
 C           3.23937819       -0.19806434       -0.14823333
 C           2.83626844        1.12431397       -0.14890172
 C           1.43724334        1.31134696       -0.14931220
 C           0.69606563        0.10654716       -0.14908151
 H           0.95807640        2.28459073       -0.14860036
 C          -0.69610330       -0.10652413       -0.14907621
 S          -1.68480719        0.27496932        1.29716263
 C          -1.54464122       -0.60987680       -1.16273616
 C          -3.17105716       -0.24854000        0.49564271
 C          -2.90415661       -0.68098392       -0.79002392
 H          -3.68274378       -1.04551162       -1.45612076
 H           4.24016475       -0.60708034       -0.14954918
 H           3.54430111        1.94981573       -0.14910914
 H          -4.11674325       -0.19952770        1.01731810
 H          -1.16829712       -0.91131882       -2.13448856
$end


$rem
          jobtype = opt
         exchange = b3lyp
            basis = 6-31++g**
     fon_e_thresh = 6
         fon_norb = 9
        fon_t_end = 300
      fon_t_start = 300
   max_scf_cycles = 200
       mem_static = 100
        mem_total = 1500
      occupations = 2
    scf_algorithm = diis
  scf_convergence = 7
        scf_guess = sad
           thresh = 14
$end


$opt
CONSTRAINT
tors 4 5 7 9 110.0
ENDCONSTRAINT
$end

--------------------------------------------------------------
 Atom   8: ( -1.7743334764,  1.0382805556,  0.6704613876)
         ->( -1.7743334634,  1.0382805278,  0.6704614355)
 Atom  10: ( -3.2182676724,  0.1430190823,  0.1815891183)
         ->( -3.2182677006,  0.1430192299,  0.1815889238)
 Atom  11: ( -2.8754494928, -0.9420428185, -0.6034578218)
         ->( -2.8754494897, -0.9420428468, -0.6034577474)
 Atom   9: ( -1.4900592237, -1.0872739161, -0.8311735712)
         ->( -1.4900592271, -1.0872739465, -0.8311735491)
 Atom   7: ( -0.6981780272, -0.0918197478, -0.2123988336)
         ->( -0.6981780330, -0.0918197291, -0.2123988853)
 Atom  16: ( -1.0558669288, -1.8854465208, -1.4237969289)
         ->( -1.0558669287, -1.8854465109, -1.4237969576)
 Atom  14: (  3.6174683674,  1.6252795618, -1.0101013715)
         ->(  3.6174683510,  1.6252794412, -1.0101015936)
 Atom  15: ( -4.1972009129,  0.4742383680,  0.4991628804)
         ->( -4.1972008988,  0.4742382781,  0.4991630002)
 ----------------------------------------------------------------
             Standard Nuclear Orientation (Angstroms)
    I     Atom           X                Y                Z
 ----------------------------------------------------------------
    1      S       1.7743334634    -1.0382805278     0.6704614355
    2      C       3.2182677006    -0.1430192299     0.1815889238
    3      C       2.8754494897     0.9420428468    -0.6034577474
    4      C       1.4900592271     1.0872739465    -0.8311735491
    5      C       0.6981780330     0.0918197291    -0.2123988853
    6      H       1.0558669287     1.8854465109    -1.4237969576
    7      C      -0.6981780330    -0.0918197291    -0.2123988853
    8      S      -1.7743334634     1.0382805278     0.6704614355
    9      C      -1.4900592271    -1.0872739465    -0.8311735491
   10      C      -3.2182677006     0.1430192299     0.1815889238
   11      C      -2.8754494897    -0.9420428468    -0.6034577474
   12      H      -3.6174683510    -1.6252794412    -1.0101015936
   13      H       4.1972008988    -0.4742382781     0.4991630002
   14      H       3.6174683510     1.6252794412    -1.0101015936
   15      H      -4.1972008988     0.4742382781     0.4991630002
   16      H      -1.0558669287    -1.8854465109    -1.4237969576
 ----------------------------------------------------------------
 Molecular Point Group                 C2    NOp =  2
 Largest Abelian Subgroup              C2    NOp =  2
 Nuclear Repulsion Energy =   622.8027638168 hartrees
 There are       44 alpha and       43 beta electrons
 Requested basis set is 6-31++G(d,p)
 There are 76 shells and 234 basis functions

 Total QAlloc Memory Limit   1500 MB
 Mega-Array Size        98 MB
 MEM_STATIC part       100 MB
 A cutoff of  1.0D-14 yielded   2602 shell pairs
 There are     25500 function pairs
 
 -------------------------------------------------------
 OpenMP Integral Computing Module                       
 Release: version 1.0, May 2013, Q-Chem Inc. Pittsburgh 
 -------------------------------------------------------
 Integral Job Info:
 Integral job number is                      11
 Integral operator is                         1
 short-range coefficients                     0
 long-range coefficients              100000000
 Omega coefficients                           0
 if combine SR and LR in K                    0
 Integral screening is                        0
 Integral computing path is                   2
 max size of driver memory is            800000
 size of driver memory is                593474
 size of scratch memory is             15166112
 max col of scratch BK array               1296
 max len of scratch array in speh3          155
 max len of scratch index in speh4           18
 max int batch size is                      520
 min int batch size is                       52
 fixed nKL is                                52
 max L of basis functions is                  2
 order of int derivative is                   0
 number of shells is                         76
 number of basis is                         234
 number of cartesian basis is               234
 number of contracted shell pairs          2602
 number of primitive shell pairs           8594
 maxK2 (contraction) of shell pair           36
 max number of K2 of shell pair               1
 max number of CS2 of shell pair            256
 max number of PS2 of shell pair           1524
 mem total for path MDJ                   51576
 -------------------------------------------------------
 Smallest overlap matrix eigenvalue = 9.37E-07
 Linear dependence detected in AO basis
 Number of orthogonalized atomic orbitals = 233
 Maximum deviation from orthogonality = 2.404E-11

 Scale SEOQF with 1.000000e-01/1.000000e-01/1.000000e-01

 Standard Electronic Orientation quadrupole field applied
 Nucleus-field energy     =     0.0000000165 hartrees
 Guess from superposition of atomic densities
 Warning:  Energy on first SCF cycle will be non-variational

-------------------------------------------------
Fractional occupation number algorithm turned on.
-------------------------------------------------

Initial Temperature =    300.000 K
Final Temperature =    300.000 K
-------------------------------------------------

 An unrestricted hybrid HF-DFT SCF calculation will be
 performed using Pulay DIIS extrapolation
 Exchange:     0.2000 Hartree-Fock + 0.0800 Slater + 0.7200 B88
 Correlation:  0.1900 VWN1RPA + 0.8100 LYP
 Using SG-1 standard quadrature grid
 SCF converges when DIIS error is below 1.0E-07
 Inaccurate integrated density:
   Number of electrons =    87
   Numerical integral  =    86.000038323261
   Relative error      =    -1.1493812376 %

---- Fractional Occupation Number Information ----
Temperature =    300.000 K
Fermi level =  -0.299257 Hartree
HOMO-LUMO gap =   0.005063 Hartree
Number of active orbitals = 18
Number of active electrons = 9
EMax =   4.30e-02
thresh =   1.00e-06
Generating Pseudo-Fermi distribution of occupation numbers.
--
# Rescaled active electrons =      9.000
Writing occupation numbers to disk ...
---- Fractional Occupation Number Information End ----


---- Fractional Occupation Number Information ----
Temperature =    300.000 K
Fermi level =  -0.304168 Hartree
HOMO-LUMO gap =   0.004761 Hartree
Number of active orbitals = 18
Number of active electrons = 9
EMax =   4.30e-02
thresh =   1.00e-06
Generating Pseudo-Fermi distribution of occupation numbers.
--
# Rescaled active electrons =      9.000
Writing occupation numbers to disk ...
---- Fractional Occupation Number Information End ----

 ---------------------------------------
  Cycle       Energy         DIIS Error
 ---------------------------------------
    1   -1106.9954599657      4.30E-02

---- Fractional Occupation Number Information ----
Temperature =    300.000 K
Fermi level =  -0.484813 Hartree
HOMO-LUMO gap =   0.075795 Hartree
Number of active orbitals = 18
Number of active electrons = 9
EMax =   4.85e-02
thresh =   1.00e-06
Generating Pseudo-Fermi distribution of occupation numbers.
--
# Rescaled active electrons =      9.000
Writing occupation numbers to disk ...
---- Fractional Occupation Number Information End ----


---- Fractional Occupation Number Information ----
Temperature =    300.000 K
Fermi level =  -0.523140 Hartree
HOMO-LUMO gap =   0.003208 Hartree
Number of active orbitals = 18
Number of active electrons = 9
EMax =   4.85e-02
thresh =   1.00e-06
Generating Pseudo-Fermi distribution of occupation numbers.
--
# Rescaled active electrons =      9.000
Writing occupation numbers to disk ...
---- Fractional Occupation Number Information End ----

    2   -1066.6072698863      4.85E-02

---- Fractional Occupation Number Information ----
Temperature =    300.000 K
Fermi level =  -0.588997 Hartree
HOMO-LUMO gap =   0.082729 Hartree
Number of active orbitals = 18
Number of active electrons = 9
EMax =   8.63e-02
thresh =   1.00e-06
Generating Pseudo-Fermi distribution of occupation numbers.
--
# Rescaled active electrons =      9.000
Writing occupation numbers to disk ...
---- Fractional Occupation Number Information End ----


---- Fractional Occupation Number Information ----
Temperature =    300.000 K
Fermi level =  -0.622281 Hartree
HOMO-LUMO gap =   0.004749 Hartree
Number of active orbitals = 18
Number of active electrons = 9
EMax =   8.63e-02
thresh =   1.00e-06
Generating Pseudo-Fermi distribution of occupation numbers.
--
# Rescaled active electrons =      9.000
Writing occupation numbers to disk ...
---- Fractional Occupation Number Information End ----

    3   -1099.4310459631      8.63E-02

---- Fractional Occupation Number Information ----
Temperature =    300.000 K
Fermi level =  -0.711312 Hartree
HOMO-LUMO gap =   0.089613 Hartree
Number of active orbitals = 18
Number of active electrons = 9
EMax =   2.19e-01
thresh =   1.00e-06
Generating Pseudo-Fermi distribution of occupation numbers.
--
# Rescaled active electrons =      9.000
Writing occupation numbers to disk ...
---- Fractional Occupation Number Information End ----


---- Fractional Occupation Number Information ----
Temperature =    300.000 K
Fermi level =  -0.740882 Hartree
HOMO-LUMO gap =   0.005960 Hartree
Number of active orbitals = 18
Number of active electrons = 9
EMax =   2.19e-01
thresh =   1.00e-06
Generating Pseudo-Fermi distribution of occupation numbers.
--
# Rescaled active electrons =      9.000
Writing occupation numbers to disk ...
---- Fractional Occupation Number Information End ----

    4   -1112.5767109906      2.19E-01

---- Fractional Occupation Number Information ----
Temperature =    300.000 K
Fermi level =  -0.795102 Hartree
HOMO-LUMO gap =   0.001490 Hartree
Number of active orbitals = 18
Number of active electrons = 9
EMax =   4.91e-01
thresh =   1.00e-06
Generating Pseudo-Fermi distribution of occupation numbers.
--
# Rescaled active electrons =      9.000
Writing occupation numbers to disk ...
---- Fractional Occupation Number Information End ----


---- Fractional Occupation Number Information ----
Temperature =    300.000 K
Fermi level =  -0.792114 Hartree
HOMO-LUMO gap =   0.025062 Hartree
Number of active orbitals = 18
Number of active electrons = 9
EMax =   4.91e-01
thresh =   1.00e-06
Generating Pseudo-Fermi distribution of occupation numbers.
--
# Rescaled active electrons =      9.000
Writing occupation numbers to disk ...
---- Fractional Occupation Number Information End ----

    5   -1243.4978086400      4.91E-01

---- Fractional Occupation Number Information ----
Temperature =    300.000 K
Fermi level =  -0.796447 Hartree
HOMO-LUMO gap =   0.001537 Hartree
Number of active orbitals = 18
Number of active electrons = 9
EMax =   2.75e-01
thresh =   1.00e-06
Generating Pseudo-Fermi distribution of occupation numbers.
--
# Rescaled active electrons =      9.000
Writing occupation numbers to disk ...
---- Fractional Occupation Number Information End ----


---- Fractional Occupation Number Information ----
Temperature =    300.000 K
Fermi level =  -0.793248 Hartree
HOMO-LUMO gap =   0.024957 Hartree
Number of active orbitals = 18
Number of active electrons = 9
EMax =   2.75e-01
thresh =   1.00e-06
Generating Pseudo-Fermi distribution of occupation numbers.
--
# Rescaled active electrons =      9.000
Writing occupation numbers to disk ...
---- Fractional Occupation Number Information End ----

    6   -1172.5824785356      2.75E-01

---- Fractional Occupation Number Information ----
Temperature =    300.000 K
Fermi level =  -0.799746 Hartree
HOMO-LUMO gap =   0.092870 Hartree
Number of active orbitals = 18
Number of active electrons = 9
EMax =   2.80e-01
thresh =   1.00e-06
Generating Pseudo-Fermi distribution of occupation numbers.
--
# Rescaled active electrons =      9.000
Writing occupation numbers to disk ...
---- Fractional Occupation Number Information End ----


---- Fractional Occupation Number Information ----
Temperature =    300.000 K
Fermi level =  -0.824204 Hartree
HOMO-LUMO gap =   0.006666 Hartree
Number of active orbitals = 18
Number of active electrons = 9
EMax =   2.80e-01
thresh =   1.00e-06
Generating Pseudo-Fermi distribution of occupation numbers.
--
# Rescaled active electrons =      9.000
Writing occupation numbers to disk ...
---- Fractional Occupation Number Information End ----

    7   -1175.3001072177      2.80E-01

---- Fractional Occupation Number Information ----
Temperature =    300.000 K
Fermi level =  -0.818858 Hartree
HOMO-LUMO gap =   0.033183 Hartree
Number of active orbitals = 18
Number of active electrons = 9
EMax =   4.51e-01
thresh =   1.00e-06
Generating Pseudo-Fermi distribution of occupation numbers.
--
# Rescaled active electrons =      9.000
Writing occupation numbers to disk ...
---- Fractional Occupation Number Information End ----


---- Fractional Occupation Number Information ----
Temperature =    300.000 K
Fermi level =  -0.813929 Hartree
HOMO-LUMO gap =   0.006557 Hartree
Number of active orbitals = 18
Number of active electrons = 9
EMax =   4.51e-01
thresh =   1.00e-06
Generating Pseudo-Fermi distribution of occupation numbers.
--
# Rescaled active electrons =      9.000
Writing occupation numbers to disk ...
---- Fractional Occupation Number Information End ----

    8   -1247.3984511961      4.51E-01

---- Fractional Occupation Number Information ----
Temperature =    300.000 K
Fermi level =  -0.784776 Hartree
HOMO-LUMO gap =   0.090545 Hartree
Number of active orbitals = 18
Number of active electrons = 9
EMax =   3.63e-01
thresh =   1.00e-06
Generating Pseudo-Fermi distribution of occupation numbers.
--
# Rescaled active electrons =      9.000
Writing occupation numbers to disk ...
---- Fractional Occupation Number Information End ----


---- Fractional Occupation Number Information ----
Temperature =    300.000 K
Fermi level =  -0.809049 Hartree
HOMO-LUMO gap =   0.006653 Hartree
Number of active orbitals = 18
Number of active electrons = 9
EMax =   3.63e-01
thresh =   1.00e-06
Generating Pseudo-Fermi distribution of occupation numbers.
--
# Rescaled active electrons =      9.000
Writing occupation numbers to disk ...
---- Fractional Occupation Number Information End ----

    9   -1149.7798280371      3.63E-01

---- Fractional Occupation Number Information ----
Temperature =    300.000 K
Fermi level =  -0.767785 Hartree
HOMO-LUMO gap =   0.027681 Hartree
Number of active orbitals = 18
Number of active electrons = 9
EMax =   2.45e-01
thresh =   1.00e-06
Generating Pseudo-Fermi distribution of occupation numbers.
--
# Rescaled active electrons =      9.000
Writing occupation numbers to disk ...
---- Fractional Occupation Number Information End ----


---- Fractional Occupation Number Information ----
Temperature =    300.000 K
Fermi level =  -0.824041 Hartree
HOMO-LUMO gap =   0.009413 Hartree
Number of active orbitals = 18
Number of active electrons = 9
EMax =   2.45e-01
thresh =   1.00e-06
Generating Pseudo-Fermi distribution of occupation numbers.
--
# Rescaled active electrons =      9.000
Writing occupation numbers to disk ...
---- Fractional Occupation Number Information End ----

   10   -1116.0946267940      2.45E-01

---- Fractional Occupation Number Information ----
Temperature =    300.000 K
Fermi level =  -0.833320 Hartree
HOMO-LUMO gap =   0.104485 Hartree
Number of active orbitals = 18
Number of active electrons = 9
EMax =   1.77e-01
thresh =   1.00e-06
Generating Pseudo-Fermi distribution of occupation numbers.
--
# Rescaled active electrons =      9.000
Writing occupation numbers to disk ...
---- Fractional Occupation Number Information End ----


---- Fractional Occupation Number Information ----
Temperature =    300.000 K
Fermi level =  -0.859603 Hartree
HOMO-LUMO gap =   0.010747 Hartree
Number of active orbitals = 18
Number of active electrons = 9
EMax =   1.77e-01
thresh =   1.00e-06
Generating Pseudo-Fermi distribution of occupation numbers.
--
# Rescaled active electrons =      9.000
Writing occupation numbers to disk ...
---- Fractional Occupation Number Information End ----

   11   -1188.2269901900      1.77E-01

---- Fractional Occupation Number Information ----
Temperature =    300.000 K
Fermi level =  -0.818620 Hartree
HOMO-LUMO gap =   0.102264 Hartree
Number of active orbitals = 18
Number of active electrons = 9
EMax =   1.19e-01
thresh =   1.00e-06
Generating Pseudo-Fermi distribution of occupation numbers.
--
# Rescaled active electrons =      9.000
Writing occupation numbers to disk ...
---- Fractional Occupation Number Information End ----


---- Fractional Occupation Number Information ----
Temperature =    300.000 K
Fermi level =  -0.844328 Hartree
HOMO-LUMO gap =   0.010052 Hartree
Number of active orbitals = 18
Number of active electrons = 9
EMax =   1.19e-01
thresh =   1.00e-06
Generating Pseudo-Fermi distribution of occupation numbers.
--
# Rescaled active electrons =      9.000
Writing occupation numbers to disk ...
---- Fractional Occupation Number Information End ----

   12   -1112.7858641364      1.19E-01

---- Fractional Occupation Number Information ----
Temperature =    300.000 K
Fermi level =  -0.818599 Hartree
HOMO-LUMO gap =   0.087531 Hartree
Number of active orbitals = 18
Number of active electrons = 9
EMax =   1.00e-01
thresh =   1.00e-06
Generating Pseudo-Fermi distribution of occupation numbers.
--
# Rescaled active electrons =      9.000
Writing occupation numbers to disk ...
---- Fractional Occupation Number Information End ----


---- Fractional Occupation Number Information ----
Temperature =    300.000 K
Fermi level =  -0.851663 Hartree
HOMO-LUMO gap =   0.010769 Hartree
Number of active orbitals = 18
Number of active electrons = 9
EMax =   1.00e-01
thresh =   1.00e-06
Generating Pseudo-Fermi distribution of occupation numbers.
--
# Rescaled active electrons =      9.000
Writing occupation numbers to disk ...
---- Fractional Occupation Number Information End ----

   13   -1124.5367395025      1.00E-01

---- Fractional Occupation Number Information ----
Temperature =    300.000 K
Fermi level =  -0.834452 Hartree
HOMO-LUMO gap =   0.018159 Hartree
Number of active orbitals = 18
Number of active electrons = 9
EMax =   8.77e-02
thresh =   1.00e-06
Generating Pseudo-Fermi distribution of occupation numbers.
--
# Rescaled active electrons =      9.000
Writing occupation numbers to disk ...
---- Fractional Occupation Number Information End ----


---- Fractional Occupation Number Information ----
Temperature =    300.000 K
Fermi level =  -0.915951 Hartree
HOMO-LUMO gap =   0.016181 Hartree
Number of active orbitals = 18
Number of active electrons = 9
EMax =   8.77e-02
thresh =   1.00e-06
Generating Pseudo-Fermi distribution of occupation numbers.
--
# Rescaled active electrons =      9.000
Writing occupation numbers to disk ...
---- Fractional Occupation Number Information End ----

   14   -1119.7241239894      8.77E-02

---- Fractional Occupation Number Information ----
Temperature =    300.000 K
Fermi level =  -0.850777 Hartree
HOMO-LUMO gap =   0.013870 Hartree
Number of active orbitals = 18
Number of active electrons = 9
EMax =   5.58e-02
thresh =   1.00e-06
Generating Pseudo-Fermi distribution of occupation numbers.
--
# Rescaled active electrons =      9.000
Writing occupation numbers to disk ...
---- Fractional Occupation Number Information End ----


---- Fractional Occupation Number Information ----
Temperature =    300.000 K
Fermi level =  -0.886284 Hartree
HOMO-LUMO gap =   0.069851 Hartree
Number of active orbitals = 18
Number of active electrons = 9
EMax =   5.58e-02
thresh =   1.00e-06
Generating Pseudo-Fermi distribution of occupation numbers.
--
# Rescaled active electrons =      9.000
Writing occupation numbers to disk ...
---- Fractional Occupation Number Information End ----

   15   -1103.9676812161      5.58E-02

---- Fractional Occupation Number Information ----
Temperature =    300.000 K
Fermi level =  -0.743415 Hartree
HOMO-LUMO gap =   0.010868 Hartree
Number of active orbitals = 18
Number of active electrons = 9
EMax =   1.13e-02
thresh =   1.00e-06
Generating Pseudo-Fermi distribution of occupation numbers.
--
# Rescaled active electrons =      9.000
Writing occupation numbers to disk ...
---- Fractional Occupation Number Information End ----


---- Fractional Occupation Number Information ----
Temperature =    300.000 K
Fermi level =  -0.786693 Hartree
HOMO-LUMO gap =   0.113253 Hartree
Number of active orbitals = 18
Number of active electrons = 9
EMax =   1.13e-02
thresh =   1.00e-06
Generating Pseudo-Fermi distribution of occupation numbers.
--
# Rescaled active electrons =      9.000
Writing occupation numbers to disk ...
---- Fractional Occupation Number Information End ----

   16   -1099.1425322913      1.13E-02

---- Fractional Occupation Number Information ----
Temperature =    300.000 K
Fermi level =  -0.755817 Hartree
HOMO-LUMO gap =   0.025526 Hartree
Number of active orbitals = 18
Number of active electrons = 9
EMax =   2.18e-02
thresh =   1.00e-06
Generating Pseudo-Fermi distribution of occupation numbers.
--
# Rescaled active electrons =      9.000
Writing occupation numbers to disk ...
---- Fractional Occupation Number Information End ----


---- Fractional Occupation Number Information ----
Temperature =    300.000 K
Fermi level =  -0.753135 Hartree
HOMO-LUMO gap =   0.001766 Hartree
Number of active orbitals = 18
Number of active electrons = 9
EMax =   2.18e-02
thresh =   1.00e-06
Generating Pseudo-Fermi distribution of occupation numbers.
--
# Rescaled active electrons =      9.000
Writing occupation numbers to disk ...
---- Fractional Occupation Number Information End ----

   17   -1098.9332323381      2.18E-02

---- Fractional Occupation Number Information ----
Temperature =    300.000 K
Fermi level =  -0.648346 Hartree
HOMO-LUMO gap =   0.037519 Hartree
Number of active orbitals = 18
Number of active electrons = 9
EMax =   4.60e-02
thresh =   1.00e-06
Generating Pseudo-Fermi distribution of occupation numbers.
--
# Rescaled active electrons =      9.000
Writing occupation numbers to disk ...
---- Fractional Occupation Number Information End ----


---- Fractional Occupation Number Information ----
Temperature =    300.000 K
Fermi level =  -0.648844 Hartree
HOMO-LUMO gap =   0.001898 Hartree
Number of active orbitals = 18
Number of active electrons = 9
EMax =   4.60e-02
thresh =   1.00e-06
Generating Pseudo-Fermi distribution of occupation numbers.
--
# Rescaled active electrons =      9.000
Writing occupation numbers to disk ...
---- Fractional Occupation Number Information End ----

   18   -1102.2290801773      4.60E-02

---- Fractional Occupation Number Information ----
Temperature =    300.000 K
Fermi level =  -0.547309 Hartree
HOMO-LUMO gap =   0.036826 Hartree
Number of active orbitals = 18
Number of active electrons = 9
EMax =   1.18e-02
thresh =   1.00e-06
Generating Pseudo-Fermi distribution of occupation numbers.
--
# Rescaled active electrons =      9.000
Writing occupation numbers to disk ...
---- Fractional Occupation Number Information End ----


---- Fractional Occupation Number Information ----
Temperature =    300.000 K
Fermi level =  -0.543243 Hartree
HOMO-LUMO gap =   0.009650 Hartree
Number of active orbitals = 18
Number of active electrons = 9
EMax =   1.18e-02
thresh =   1.00e-06
Generating Pseudo-Fermi distribution of occupation numbers.
--
# Rescaled active electrons =      9.000
Writing occupation numbers to disk ...
---- Fractional Occupation Number Information End ----

   19   -1102.0478421437      1.18E-02

---- Fractional Occupation Number Information ----
Temperature =    300.000 K
Fermi level =  -0.363790 Hartree
HOMO-LUMO gap =   0.117329 Hartree
Number of active orbitals = 18
Number of active electrons = 9
EMax =   8.79e-03
thresh =   1.00e-06
Generating Pseudo-Fermi distribution of occupation numbers.
--
# Rescaled active electrons =      9.000
Writing occupation numbers to disk ...
---- Fractional Occupation Number Information End ----


---- Fractional Occupation Number Information ----
Temperature =    300.000 K
Fermi level =  -0.433287 Hartree
HOMO-LUMO gap =   0.022859 Hartree
Number of active orbitals = 18
Number of active electrons = 9
EMax =   8.79e-03
thresh =   1.00e-06
Generating Pseudo-Fermi distribution of occupation numbers.
--
# Rescaled active electrons =      9.000
Writing occupation numbers to disk ...
---- Fractional Occupation Number Information End ----

   20   -1102.2801065795      8.79E-03

---- Fractional Occupation Number Information ----
Temperature =    300.000 K
Fermi level =  -0.354536 Hartree
HOMO-LUMO gap =   0.118068 Hartree
Number of active orbitals = 18
Number of active electrons = 9
EMax =   7.51e-02
thresh =   1.00e-06
Generating Pseudo-Fermi distribution of occupation numbers.
--
# Rescaled active electrons =      9.000
Writing occupation numbers to disk ...
---- Fractional Occupation Number Information End ----


---- Fractional Occupation Number Information ----
Temperature =    300.000 K
Fermi level =  -0.431268 Hartree
HOMO-LUMO gap =   0.023611 Hartree
Number of active orbitals = 18
Number of active electrons = 9
EMax =   7.51e-02
thresh =   1.00e-06
Generating Pseudo-Fermi distribution of occupation numbers.
--
# Rescaled active electrons =      9.000
Writing occupation numbers to disk ...
---- Fractional Occupation Number Information End ----

   21   -1099.2779008596      7.51E-02

---- Fractional Occupation Number Information ----
Temperature =    300.000 K
Fermi level =  -0.347400 Hartree
HOMO-LUMO gap =   0.102581 Hartree
Number of active orbitals = 18
Number of active electrons = 9
EMax =   8.75e-02
thresh =   1.00e-06
Generating Pseudo-Fermi distribution of occupation numbers.
--
# Rescaled active electrons =      9.000
Writing occupation numbers to disk ...
---- Fractional Occupation Number Information End ----


---- Fractional Occupation Number Information ----
Temperature =    300.000 K
Fermi level =  -0.432026 Hartree
HOMO-LUMO gap =   0.022898 Hartree
Number of active orbitals = 18
Number of active electrons = 9
EMax =   8.75e-02
thresh =   1.00e-06
Generating Pseudo-Fermi distribution of occupation numbers.
--
# Rescaled active electrons =      9.000
Writing occupation numbers to disk ...
---- Fractional Occupation Number Information End ----

   22   -1098.4791013648      8.75E-02

---- Fractional Occupation Number Information ----
Temperature =    300.000 K
Fermi level =  -0.260427 Hartree
HOMO-LUMO gap =   0.018362 Hartree
Number of active orbitals = 18
Number of active electrons = 9
EMax =   9.32e-02
thresh =   1.00e-06
Generating Pseudo-Fermi distribution of occupation numbers.
--
# Rescaled active electrons =      9.000
Writing occupation numbers to disk ...
---- Fractional Occupation Number Information End ----


---- Fractional Occupation Number Information ----
Temperature =    300.000 K
Fermi level =  -0.321875 Hartree
HOMO-LUMO gap =   0.143728 Hartree
Number of active orbitals = 18
Number of active electrons = 9
EMax =   9.32e-02
thresh =   1.00e-06
Generating Pseudo-Fermi distribution of occupation numbers.
--
# Rescaled active electrons =      9.000
Writing occupation numbers to disk ...
---- Fractional Occupation Number Information End ----

   23   -1098.4531391597      9.32E-02

---- Fractional Occupation Number Information ----
Temperature =    300.000 K
Fermi level =  -0.001415 Hartree
HOMO-LUMO gap =   0.035389 Hartree
Number of active orbitals = 18
Number of active electrons = 9
EMax =   6.59e-03
thresh =   1.00e-06
Generating Pseudo-Fermi distribution of occupation numbers.
--
# Rescaled active electrons =      9.000
Writing occupation numbers to disk ...
---- Fractional Occupation Number Information End ----


---- Fractional Occupation Number Information ----
Temperature =    300.000 K
Fermi level =  -0.056771 Hartree
HOMO-LUMO gap =   0.148405 Hartree
Number of active orbitals = 18
Number of active electrons = 9
EMax =   6.59e-03
thresh =   1.00e-06
Generating Pseudo-Fermi distribution of occupation numbers.
--
# Rescaled active electrons =      9.000
Writing occupation numbers to disk ...
---- Fractional Occupation Number Information End ----

   24   -1104.3813642616      6.59E-03

---- Fractional Occupation Number Information ----
Temperature =    300.000 K
Fermi level =   0.083137 Hartree
HOMO-LUMO gap =   0.019753 Hartree
Number of active orbitals = 18
Number of active electrons = 9
EMax =   1.61e-03
thresh =   1.00e-06
Generating Pseudo-Fermi distribution of occupation numbers.
--
# Rescaled active electrons =      9.000
Writing occupation numbers to disk ...
---- Fractional Occupation Number Information End ----


---- Fractional Occupation Number Information ----
Temperature =    300.000 K
Fermi level =   0.023272 Hartree
HOMO-LUMO gap =   0.138550 Hartree
Number of active orbitals = 18
Number of active electrons = 9
EMax =   1.61e-03
thresh =   1.00e-06
Generating Pseudo-Fermi distribution of occupation numbers.
--
# Rescaled active electrons =      9.000
Writing occupation numbers to disk ...
---- Fractional Occupation Number Information End ----

   25   -1104.7932468883      1.61E-03

---- Fractional Occupation Number Information ----
Temperature =    300.000 K
Fermi level =   0.084797 Hartree
HOMO-LUMO gap =   0.023930 Hartree
Number of active orbitals = 18
Number of active electrons = 9
EMax =   1.67e-03
thresh =   1.00e-06
Generating Pseudo-Fermi distribution of occupation numbers.
--
# Rescaled active electrons =      9.000
Writing occupation numbers to disk ...
---- Fractional Occupation Number Information End ----


---- Fractional Occupation Number Information ----
Temperature =    300.000 K
Fermi level =   0.026573 Hartree
HOMO-LUMO gap =   0.138860 Hartree
Number of active orbitals = 18
Number of active electrons = 9
EMax =   1.67e-03
thresh =   1.00e-06
Generating Pseudo-Fermi distribution of occupation numbers.
--
# Rescaled active electrons =      9.000
Writing occupation numbers to disk ...
---- Fractional Occupation Number Information End ----

   26   -1104.8022420708      1.67E-03

---- Fractional Occupation Number Information ----
Temperature =    300.000 K
Fermi level =   0.080613 Hartree
HOMO-LUMO gap =   0.028836 Hartree
Number of active orbitals = 18
Number of active electrons = 9
EMax =   3.41e-04
thresh =   1.00e-06
Generating Pseudo-Fermi distribution of occupation numbers.
--
# Rescaled active electrons =      9.000
Writing occupation numbers to disk ...
---- Fractional Occupation Number Information End ----


---- Fractional Occupation Number Information ----
Temperature =    300.000 K
Fermi level =   0.022097 Hartree
HOMO-LUMO gap =   0.144114 Hartree
Number of active orbitals = 18
Number of active electrons = 9
EMax =   3.41e-04
thresh =   1.00e-06
Generating Pseudo-Fermi distribution of occupation numbers.
--
# Rescaled active electrons =      9.000
Writing occupation numbers to disk ...
---- Fractional Occupation Number Information End ----

   27   -1104.8236778055      3.41E-04

---- Fractional Occupation Number Information ----
Temperature =    300.000 K
Fermi level =   0.079173 Hartree
HOMO-LUMO gap =   0.030073 Hartree
Number of active orbitals = 18
Number of active electrons = 9
EMax =   1.93e-04
thresh =   1.00e-06
Generating Pseudo-Fermi distribution of occupation numbers.
--
# Rescaled active electrons =      9.000
Writing occupation numbers to disk ...
---- Fractional Occupation Number Information End ----


---- Fractional Occupation Number Information ----
Temperature =    300.000 K
Fermi level =   0.020115 Hartree
HOMO-LUMO gap =   0.146260 Hartree
Number of active orbitals = 18
Number of active electrons = 9
EMax =   1.93e-04
thresh =   1.00e-06
Generating Pseudo-Fermi distribution of occupation numbers.
--
# Rescaled active electrons =      9.000
Writing occupation numbers to disk ...
---- Fractional Occupation Number Information End ----

   28   -1104.8244073505      1.93E-04

---- Fractional Occupation Number Information ----
Temperature =    300.000 K
Fermi level =   0.078879 Hartree
HOMO-LUMO gap =   0.030549 Hartree
Number of active orbitals = 18
Number of active electrons = 9
EMax =   3.83e-05
thresh =   1.00e-06
Generating Pseudo-Fermi distribution of occupation numbers.
--
# Rescaled active electrons =      9.000
Writing occupation numbers to disk ...
---- Fractional Occupation Number Information End ----


---- Fractional Occupation Number Information ----
Temperature =    300.000 K
Fermi level =   0.019763 Hartree
HOMO-LUMO gap =   0.146773 Hartree
Number of active orbitals = 18
Number of active electrons = 9
EMax =   3.83e-05
thresh =   1.00e-06
Generating Pseudo-Fermi distribution of occupation numbers.
--
# Rescaled active electrons =      9.000
Writing occupation numbers to disk ...
---- Fractional Occupation Number Information End ----

   29   -1104.8246477147      3.83E-05

---- Fractional Occupation Number Information ----
Temperature =    300.000 K
Fermi level =   0.078831 Hartree
HOMO-LUMO gap =   0.030826 Hartree
Number of active orbitals = 18
Number of active electrons = 9
EMax =   1.80e-05
thresh =   1.00e-06
Generating Pseudo-Fermi distribution of occupation numbers.
--
# Rescaled active electrons =      9.000
Writing occupation numbers to disk ...
---- Fractional Occupation Number Information End ----


---- Fractional Occupation Number Information ----
Temperature =    300.000 K
Fermi level =   0.019610 Hartree
HOMO-LUMO gap =   0.147191 Hartree
Number of active orbitals = 18
Number of active electrons = 9
EMax =   1.80e-05
thresh =   1.00e-06
Generating Pseudo-Fermi distribution of occupation numbers.
--
# Rescaled active electrons =      9.000
Writing occupation numbers to disk ...
---- Fractional Occupation Number Information End ----

   30   -1104.8246839161      1.80E-05

---- Fractional Occupation Number Information ----
Temperature =    300.000 K
Fermi level =   0.078695 Hartree
HOMO-LUMO gap =   0.030954 Hartree
Number of active orbitals = 18
Number of active electrons = 9
EMax =   6.73e-06
thresh =   1.00e-06
Generating Pseudo-Fermi distribution of occupation numbers.
--
# Rescaled active electrons =      9.000
Writing occupation numbers to disk ...
---- Fractional Occupation Number Information End ----


---- Fractional Occupation Number Information ----
Temperature =    300.000 K
Fermi level =   0.019366 Hartree
HOMO-LUMO gap =   0.147415 Hartree
Number of active orbitals = 18
Number of active electrons = 9
EMax =   6.73e-06
thresh =   1.00e-06
Generating Pseudo-Fermi distribution of occupation numbers.
--
# Rescaled active electrons =      9.000
Writing occupation numbers to disk ...
---- Fractional Occupation Number Information End ----

   31   -1104.8247652643      6.73E-06

---- Fractional Occupation Number Information ----
Temperature =    300.000 K
Fermi level =   0.078621 Hartree
HOMO-LUMO gap =   0.031056 Hartree
Number of active orbitals = 18
Number of active electrons = 9
EMax =   5.54e-06
thresh =   1.00e-06
Generating Pseudo-Fermi distribution of occupation numbers.
--
# Rescaled active electrons =      9.000
Writing occupation numbers to disk ...
---- Fractional Occupation Number Information End ----


---- Fractional Occupation Number Information ----
Temperature =    300.000 K
Fermi level =   0.019210 Hartree
HOMO-LUMO gap =   0.147633 Hartree
Number of active orbitals = 18
Number of active electrons = 9
EMax =   5.54e-06
thresh =   1.00e-06
Generating Pseudo-Fermi distribution of occupation numbers.
--
# Rescaled active electrons =      9.000
Writing occupation numbers to disk ...
---- Fractional Occupation Number Information End ----

   32   -1104.8247011943      5.54E-06

---- Fractional Occupation Number Information ----
Temperature =    300.000 K
Fermi level =   0.078593 Hartree
HOMO-LUMO gap =   0.030965 Hartree
Number of active orbitals = 18
Number of active electrons = 9
EMax =   6.12e-06
thresh =   1.00e-06
Generating Pseudo-Fermi distribution of occupation numbers.
--
# Rescaled active electrons =      9.000
Writing occupation numbers to disk ...
---- Fractional Occupation Number Information End ----


---- Fractional Occupation Number Information ----
Temperature =    300.000 K
Fermi level =   0.019181 Hartree
HOMO-LUMO gap =   0.147527 Hartree
Number of active orbitals = 18
Number of active electrons = 9
EMax =   6.12e-06
thresh =   1.00e-06
Generating Pseudo-Fermi distribution of occupation numbers.
--
# Rescaled active electrons =      9.000
Writing occupation numbers to disk ...
---- Fractional Occupation Number Information End ----

   33   -1104.8246492778      6.12E-06

---- Fractional Occupation Number Information ----
Temperature =    300.000 K
Fermi level =   0.078607 Hartree
HOMO-LUMO gap =   0.030998 Hartree
Number of active orbitals = 18
Number of active electrons = 9
EMax =   7.13e-06
thresh =   1.00e-06
Generating Pseudo-Fermi distribution of occupation numbers.
--
# Rescaled active electrons =      9.000
Writing occupation numbers to disk ...
---- Fractional Occupation Number Information End ----


---- Fractional Occupation Number Information ----
Temperature =    300.000 K
Fermi level =   0.019194 Hartree
HOMO-LUMO gap =   0.147568 Hartree
Number of active orbitals = 18
Number of active electrons = 9
EMax =   7.13e-06
thresh =   1.00e-06
Generating Pseudo-Fermi distribution of occupation numbers.
--
# Rescaled active electrons =      9.000
Writing occupation numbers to disk ...
---- Fractional Occupation Number Information End ----

   34   -1104.8246865043      7.13E-06

---- Fractional Occupation Number Information ----
Temperature =    300.000 K
Fermi level =   0.078384 Hartree
HOMO-LUMO gap =   0.030812 Hartree
Number of active orbitals = 18
Number of active electrons = 9
EMax =   1.29e-05
thresh =   1.00e-06
Generating Pseudo-Fermi distribution of occupation numbers.
--
# Rescaled active electrons =      9.000
Writing occupation numbers to disk ...
---- Fractional Occupation Number Information End ----


---- Fractional Occupation Number Information ----
Temperature =    300.000 K
Fermi level =   0.018875 Hartree
HOMO-LUMO gap =   0.147417 Hartree
Number of active orbitals = 18
Number of active electrons = 9
EMax =   1.29e-05
thresh =   1.00e-06
Generating Pseudo-Fermi distribution of occupation numbers.
--
# Rescaled active electrons =      9.000
Writing occupation numbers to disk ...
---- Fractional Occupation Number Information End ----

   35   -1104.8247102821      1.29E-05

---- Fractional Occupation Number Information ----
Temperature =    300.000 K
Fermi level =   0.078471 Hartree
HOMO-LUMO gap =   0.030962 Hartree
Number of active orbitals = 18
Number of active electrons = 9
EMax =   2.84e-05
thresh =   1.00e-06
Generating Pseudo-Fermi distribution of occupation numbers.
--
# Rescaled active electrons =      9.000
Writing occupation numbers to disk ...
---- Fractional Occupation Number Information End ----


---- Fractional Occupation Number Information ----
Temperature =    300.000 K
Fermi level =   0.018978 Hartree
HOMO-LUMO gap =   0.147614 Hartree
Number of active orbitals = 18
Number of active electrons = 9
EMax =   2.84e-05
thresh =   1.00e-06
Generating Pseudo-Fermi distribution of occupation numbers.
--
# Rescaled active electrons =      9.000
Writing occupation numbers to disk ...
---- Fractional Occupation Number Information End ----

   36   -1104.8246827440      2.84E-05

---- Fractional Occupation Number Information ----
Temperature =    300.000 K
Fermi level =   0.078384 Hartree
HOMO-LUMO gap =   0.030964 Hartree
Number of active orbitals = 18
Number of active electrons = 9
EMax =   7.35e-06
thresh =   1.00e-06
Generating Pseudo-Fermi distribution of occupation numbers.
--
# Rescaled active electrons =      9.000
Writing occupation numbers to disk ...
---- Fractional Occupation Number Information End ----


---- Fractional Occupation Number Information ----
Temperature =    300.000 K
Fermi level =   0.018831 Hartree
HOMO-LUMO gap =   0.147679 Hartree
Number of active orbitals = 18
Number of active electrons = 9
EMax =   7.35e-06
thresh =   1.00e-06
Generating Pseudo-Fermi distribution of occupation numbers.
--
# Rescaled active electrons =      9.000
Writing occupation numbers to disk ...
---- Fractional Occupation Number Information End ----

   37   -1104.8246988903      7.35E-06

---- Fractional Occupation Number Information ----
Temperature =    300.000 K
Fermi level =   0.078346 Hartree
HOMO-LUMO gap =   0.030923 Hartree
Number of active orbitals = 18
Number of active electrons = 9
EMax =   1.07e-05
thresh =   1.00e-06
Generating Pseudo-Fermi distribution of occupation numbers.
--
# Rescaled active electrons =      9.000
Writing occupation numbers to disk ...
---- Fractional Occupation Number Information End ----


---- Fractional Occupation Number Information ----
Temperature =    300.000 K
Fermi level =   0.018778 Hartree
HOMO-LUMO gap =   0.147634 Hartree
Number of active orbitals = 18
Number of active electrons = 9
EMax =   1.07e-05
thresh =   1.00e-06
Generating Pseudo-Fermi distribution of occupation numbers.
--
# Rescaled active electrons =      9.000
Writing occupation numbers to disk ...
---- Fractional Occupation Number Information End ----

   38   -1104.8247157822      1.07E-05

---- Fractional Occupation Number Information ----
Temperature =    300.000 K
Fermi level =   0.078321 Hartree
HOMO-LUMO gap =   0.030901 Hartree
Number of active orbitals = 18
Number of active electrons = 9
EMax =   2.62e-06
thresh =   1.00e-06
Generating Pseudo-Fermi distribution of occupation numbers.
--
# Rescaled active electrons =      9.000
Writing occupation numbers to disk ...
---- Fractional Occupation Number Information End ----


---- Fractional Occupation Number Information ----
Temperature =    300.000 K
Fermi level =   0.018744 Hartree
HOMO-LUMO gap =   0.147610 Hartree
Number of active orbitals = 18
Number of active electrons = 9
EMax =   2.62e-06
thresh =   1.00e-06
Generating Pseudo-Fermi distribution of occupation numbers.
--
# Rescaled active electrons =      9.000
Writing occupation numbers to disk ...
---- Fractional Occupation Number Information End ----

   39   -1104.8246751425      2.62E-06

---- Fractional Occupation Number Information ----
Temperature =    300.000 K
Fermi level =   0.078312 Hartree
HOMO-LUMO gap =   0.030890 Hartree
Number of active orbitals = 18
Number of active electrons = 9
EMax =   9.43e-06
thresh =   1.00e-06
Generating Pseudo-Fermi distribution of occupation numbers.
--
# Rescaled active electrons =      9.000
Writing occupation numbers to disk ...
---- Fractional Occupation Number Information End ----


---- Fractional Occupation Number Information ----
Temperature =    300.000 K
Fermi level =   0.018732 Hartree
HOMO-LUMO gap =   0.147596 Hartree
Number of active orbitals = 18
Number of active electrons = 9
EMax =   9.43e-06
thresh =   1.00e-06
Generating Pseudo-Fermi distribution of occupation numbers.
--
# Rescaled active electrons =      9.000
Writing occupation numbers to disk ...
---- Fractional Occupation Number Information End ----

   40   -1104.8247457743      9.43E-06

---- Fractional Occupation Number Information ----
Temperature =    300.000 K
Fermi level =   0.078310 Hartree
HOMO-LUMO gap =   0.030888 Hartree
Number of active orbitals = 18
Number of active electrons = 9
EMax =   1.26e-05
thresh =   1.00e-06
Generating Pseudo-Fermi distribution of occupation numbers.
--
# Rescaled active electrons =      9.000
Writing occupation numbers to disk ...
---- Fractional Occupation Number Information End ----


---- Fractional Occupation Number Information ----
Temperature =    300.000 K
Fermi level =   0.018726 Hartree
HOMO-LUMO gap =   0.147604 Hartree
Number of active orbitals = 18
Number of active electrons = 9
EMax =   1.26e-05
thresh =   1.00e-06
Generating Pseudo-Fermi distribution of occupation numbers.
--
# Rescaled active electrons =      9.000
Writing occupation numbers to disk ...
---- Fractional Occupation Number Information End ----

   41   -1104.8247781188      1.26E-05

---- Fractional Occupation Number Information ----
Temperature =    300.000 K
Fermi level =   0.078264 Hartree
HOMO-LUMO gap =   0.030847 Hartree
Number of active orbitals = 18
Number of active electrons = 9
EMax =   2.84e-05
thresh =   1.00e-06
Generating Pseudo-Fermi distribution of occupation numbers.
--
# Rescaled active electrons =      9.000
Writing occupation numbers to disk ...
---- Fractional Occupation Number Information End ----


---- Fractional Occupation Number Information ----
Temperature =    300.000 K
Fermi level =   0.018662 Hartree
HOMO-LUMO gap =   0.147568 Hartree
Number of active orbitals = 18
Number of active electrons = 9
EMax =   2.84e-05
thresh =   1.00e-06
Generating Pseudo-Fermi distribution of occupation numbers.
--
# Rescaled active electrons =      9.000
Writing occupation numbers to disk ...
---- Fractional Occupation Number Information End ----

   42   -1104.8251798435      2.84E-05

---- Fractional Occupation Number Information ----
Temperature =    300.000 K
Fermi level =   0.078264 Hartree
HOMO-LUMO gap =   0.030851 Hartree
Number of active orbitals = 18
Number of active electrons = 9
EMax =   4.42e-05
thresh =   1.00e-06
Generating Pseudo-Fermi distribution of occupation numbers.
--
# Rescaled active electrons =      9.000
Writing occupation numbers to disk ...
---- Fractional Occupation Number Information End ----


---- Fractional Occupation Number Information ----
Temperature =    300.000 K
Fermi level =   0.018662 Hartree
HOMO-LUMO gap =   0.147580 Hartree
Number of active orbitals = 18
Number of active electrons = 9
EMax =   4.42e-05
thresh =   1.00e-06
Generating Pseudo-Fermi distribution of occupation numbers.
--
# Rescaled active electrons =      9.000
Writing occupation numbers to disk ...
---- Fractional Occupation Number Information End ----

   43   -1104.8253727581      4.42E-05

---- Fractional Occupation Number Information ----
Temperature =    300.000 K
Fermi level =   0.078249 Hartree
HOMO-LUMO gap =   0.030824 Hartree
Number of active orbitals = 18
Number of active electrons = 9
EMax =   3.68e-05
thresh =   1.00e-06
Generating Pseudo-Fermi distribution of occupation numbers.
--
# Rescaled active electrons =      9.000
Writing occupation numbers to disk ...
---- Fractional Occupation Number Information End ----


---- Fractional Occupation Number Information ----
Temperature =    300.000 K
Fermi level =   0.018651 Hartree
HOMO-LUMO gap =   0.147554 Hartree
Number of active orbitals = 18
Number of active electrons = 9
EMax =   3.68e-05
thresh =   1.00e-06
Generating Pseudo-Fermi distribution of occupation numbers.
--
# Rescaled active electrons =      9.000
Writing occupation numbers to disk ...
---- Fractional Occupation Number Information End ----

   44   -1104.8252311395      3.68E-05

---- Fractional Occupation Number Information ----
Temperature =    300.000 K
Fermi level =   0.078259 Hartree
HOMO-LUMO gap =   0.030842 Hartree
Number of active orbitals = 18
Number of active electrons = 9
EMax =   3.73e-05
thresh =   1.00e-06
Generating Pseudo-Fermi distribution of occupation numbers.
--
# Rescaled active electrons =      9.000
Writing occupation numbers to disk ...
---- Fractional Occupation Number Information End ----


---- Fractional Occupation Number Information ----
Temperature =    300.000 K
Fermi level =   0.018661 Hartree
HOMO-LUMO gap =   0.147575 Hartree
Number of active orbitals = 18
Number of active electrons = 9
EMax =   3.73e-05
thresh =   1.00e-06
Generating Pseudo-Fermi distribution of occupation numbers.
--
# Rescaled active electrons =      9.000
Writing occupation numbers to disk ...
---- Fractional Occupation Number Information End ----

   45   -1104.8248367927      3.73E-05

---- Fractional Occupation Number Information ----
Temperature =    300.000 K
Fermi level =   0.078314 Hartree
HOMO-LUMO gap =   0.030929 Hartree
Number of active orbitals = 18
Number of active electrons = 9
EMax =   3.76e-05
thresh =   1.00e-06
Generating Pseudo-Fermi distribution of occupation numbers.
--
# Rescaled active electrons =      9.000
Writing occupation numbers to disk ...
---- Fractional Occupation Number Information End ----


---- Fractional Occupation Number Information ----
Temperature =    300.000 K
Fermi level =   0.018731 Hartree
HOMO-LUMO gap =   0.147689 Hartree
Number of active orbitals = 18
Number of active electrons = 9
EMax =   3.76e-05
thresh =   1.00e-06
Generating Pseudo-Fermi distribution of occupation numbers.
--
# Rescaled active electrons =      9.000
Writing occupation numbers to disk ...
---- Fractional Occupation Number Information End ----

   46   -1104.8251577734      3.76E-05

---- Fractional Occupation Number Information ----
Temperature =    300.000 K
Fermi level =   0.078336 Hartree
HOMO-LUMO gap =   0.030950 Hartree
Number of active orbitals = 18
Number of active electrons = 9
EMax =   3.03e-05
thresh =   1.00e-06
Generating Pseudo-Fermi distribution of occupation numbers.
--
# Rescaled active electrons =      9.000
Writing occupation numbers to disk ...
---- Fractional Occupation Number Information End ----


---- Fractional Occupation Number Information ----
Temperature =    300.000 K
Fermi level =   0.018762 Hartree
HOMO-LUMO gap =   0.147710 Hartree
Number of active orbitals = 18
Number of active electrons = 9
EMax =   3.03e-05
thresh =   1.00e-06
Generating Pseudo-Fermi distribution of occupation numbers.
--
# Rescaled active electrons =      9.000
Writing occupation numbers to disk ...
---- Fractional Occupation Number Information End ----

   47   -1104.8254907365      3.03E-05

---- Fractional Occupation Number Information ----
Temperature =    300.000 K
Fermi level =   0.078328 Hartree
HOMO-LUMO gap =   0.030926 Hartree
Number of active orbitals = 18
Number of active electrons = 9
EMax =   2.42e-05
thresh =   1.00e-06
Generating Pseudo-Fermi distribution of occupation numbers.
--
# Rescaled active electrons =      9.000
Writing occupation numbers to disk ...
---- Fractional Occupation Number Information End ----


---- Fractional Occupation Number Information ----
Temperature =    300.000 K
Fermi level =   0.018756 Hartree
HOMO-LUMO gap =   0.147680 Hartree
Number of active orbitals = 18
Number of active electrons = 9
EMax =   2.42e-05
thresh =   1.00e-06
Generating Pseudo-Fermi distribution of occupation numbers.
--
# Rescaled active electrons =      9.000
Writing occupation numbers to disk ...
---- Fractional Occupation Number Information End ----

   48   -1104.8250805032      2.42E-05

---- Fractional Occupation Number Information ----
Temperature =    300.000 K
Fermi level =   0.078309 Hartree
HOMO-LUMO gap =   0.030907 Hartree
Number of active orbitals = 18
Number of active electrons = 9
EMax =   1.60e-05
thresh =   1.00e-06
Generating Pseudo-Fermi distribution of occupation numbers.
--
# Rescaled active electrons =      9.000
Writing occupation numbers to disk ...
---- Fractional Occupation Number Information End ----


---- Fractional Occupation Number Information ----
Temperature =    300.000 K
Fermi level =   0.018727 Hartree
HOMO-LUMO gap =   0.147659 Hartree
Number of active orbitals = 18
Number of active electrons = 9
EMax =   1.60e-05
thresh =   1.00e-06
Generating Pseudo-Fermi distribution of occupation numbers.
--
# Rescaled active electrons =      9.000
Writing occupation numbers to disk ...
---- Fractional Occupation Number Information End ----

   49   -1104.8245296996      1.60E-05

---- Fractional Occupation Number Information ----
Temperature =    300.000 K
Fermi level =   0.078306 Hartree
HOMO-LUMO gap =   0.030914 Hartree
Number of active orbitals = 18
Number of active electrons = 9
EMax =   4.71e-06
thresh =   1.00e-06
Generating Pseudo-Fermi distribution of occupation numbers.
--
# Rescaled active electrons =      9.000
Writing occupation numbers to disk ...
---- Fractional Occupation Number Information End ----


---- Fractional Occupation Number Information ----
Temperature =    300.000 K
Fermi level =   0.018717 Hartree
HOMO-LUMO gap =   0.147669 Hartree
Number of active orbitals = 18
Number of active electrons = 9
EMax =   4.71e-06
thresh =   1.00e-06
Generating Pseudo-Fermi distribution of occupation numbers.
--
# Rescaled active electrons =      9.000
Writing occupation numbers to disk ...
---- Fractional Occupation Number Information End ----

   50   -1104.8247240350      4.71E-06

---- Fractional Occupation Number Information ----
Temperature =    300.000 K
Fermi level =   0.078316 Hartree
HOMO-LUMO gap =   0.030932 Hartree
Number of active orbitals = 18
Number of active electrons = 9
EMax =   1.65e-06
thresh =   1.00e-06
Generating Pseudo-Fermi distribution of occupation numbers.
--
# Rescaled active electrons =      9.000
Writing occupation numbers to disk ...
---- Fractional Occupation Number Information End ----


---- Fractional Occupation Number Information ----
Temperature =    300.000 K
Fermi level =   0.018728 Hartree
HOMO-LUMO gap =   0.147693 Hartree
Number of active orbitals = 18
Number of active electrons = 9
EMax =   1.65e-06
thresh =   1.00e-06
Generating Pseudo-Fermi distribution of occupation numbers.
--
# Rescaled active electrons =      9.000
Writing occupation numbers to disk ...
---- Fractional Occupation Number Information End ----

   51   -1104.8245501223      1.65E-06

---- Fractional Occupation Number Information ----
Temperature =    300.000 K
Fermi level =   0.078325 Hartree
HOMO-LUMO gap =   0.030943 Hartree
Number of active orbitals = 18
Number of active electrons = 9
EMax =   1.17e-05
thresh =   1.00e-06
Generating Pseudo-Fermi distribution of occupation numbers.
--
# Rescaled active electrons =      9.000
Writing occupation numbers to disk ...
---- Fractional Occupation Number Information End ----


---- Fractional Occupation Number Information ----
Temperature =    300.000 K
Fermi level =   0.018739 Hartree
HOMO-LUMO gap =   0.147706 Hartree
Number of active orbitals = 18
Number of active electrons = 9
EMax =   1.17e-05
thresh =   1.00e-06
Generating Pseudo-Fermi distribution of occupation numbers.
--
# Rescaled active electrons =      9.000
Writing occupation numbers to disk ...
---- Fractional Occupation Number Information End ----

   52   -1104.8246296170      1.17E-05

---- Fractional Occupation Number Information ----
Temperature =    300.000 K
Fermi level =   0.078327 Hartree
HOMO-LUMO gap =   0.030947 Hartree
Number of active orbitals = 18
Number of active electrons = 9
EMax =   6.54e-06
thresh =   1.00e-06
Generating Pseudo-Fermi distribution of occupation numbers.
--
# Rescaled active electrons =      9.000
Writing occupation numbers to disk ...
---- Fractional Occupation Number Information End ----


---- Fractional Occupation Number Information ----
Temperature =    300.000 K
Fermi level =   0.018740 Hartree
HOMO-LUMO gap =   0.147708 Hartree
Number of active orbitals = 18
Number of active electrons = 9
EMax =   6.54e-06
thresh =   1.00e-06
Generating Pseudo-Fermi distribution of occupation numbers.
--
# Rescaled active electrons =      9.000
Writing occupation numbers to disk ...
---- Fractional Occupation Number Information End ----

   53   -1104.8245629081      6.54E-06

---- Fractional Occupation Number Information ----
Temperature =    300.000 K
Fermi level =   0.078331 Hartree
HOMO-LUMO gap =   0.030953 Hartree
Number of active orbitals = 18
Number of active electrons = 9
EMax =   5.09e-06
thresh =   1.00e-06
Generating Pseudo-Fermi distribution of occupation numbers.
--
# Rescaled active electrons =      9.000
Writing occupation numbers to disk ...
---- Fractional Occupation Number Information End ----


---- Fractional Occupation Number Information ----
Temperature =    300.000 K
Fermi level =   0.018746 Hartree
HOMO-LUMO gap =   0.147715 Hartree
Number of active orbitals = 18
Number of active electrons = 9
EMax =   5.09e-06
thresh =   1.00e-06
Generating Pseudo-Fermi distribution of occupation numbers.
--
# Rescaled active electrons =      9.000
Writing occupation numbers to disk ...
---- Fractional Occupation Number Information End ----

   54   -1104.8246356456      5.09E-06

---- Fractional Occupation Number Information ----
Temperature =    300.000 K
Fermi level =   0.078331 Hartree
HOMO-LUMO gap =   0.030952 Hartree
Number of active orbitals = 18
Number of active electrons = 9
EMax =   3.94e-06
thresh =   1.00e-06
Generating Pseudo-Fermi distribution of occupation numbers.
--
# Rescaled active electrons =      9.000
Writing occupation numbers to disk ...
---- Fractional Occupation Number Information End ----


---- Fractional Occupation Number Information ----
Temperature =    300.000 K
Fermi level =   0.018746 Hartree
HOMO-LUMO gap =   0.147714 Hartree
Number of active orbitals = 18
Number of active electrons = 9
EMax =   3.94e-06
thresh =   1.00e-06
Generating Pseudo-Fermi distribution of occupation numbers.
--
# Rescaled active electrons =      9.000
Writing occupation numbers to disk ...
---- Fractional Occupation Number Information End ----

   55   -1104.8246427284      3.94E-06

---- Fractional Occupation Number Information ----
Temperature =    300.000 K
Fermi level =   0.078335 Hartree
HOMO-LUMO gap =   0.030958 Hartree
Number of active orbitals = 18
Number of active electrons = 9
EMax =   3.29e-06
thresh =   1.00e-06
Generating Pseudo-Fermi distribution of occupation numbers.
--
# Rescaled active electrons =      9.000
Writing occupation numbers to disk ...
---- Fractional Occupation Number Information End ----


---- Fractional Occupation Number Information ----
Temperature =    300.000 K
Fermi level =   0.018751 Hartree
HOMO-LUMO gap =   0.147720 Hartree
Number of active orbitals = 18
Number of active electrons = 9
EMax =   3.29e-06
thresh =   1.00e-06
Generating Pseudo-Fermi distribution of occupation numbers.
--
# Rescaled active electrons =      9.000
Writing occupation numbers to disk ...
---- Fractional Occupation Number Information End ----

   56   -1104.8246465967      3.29E-06

---- Fractional Occupation Number Information ----
Temperature =    300.000 K
Fermi level =   0.078336 Hartree
HOMO-LUMO gap =   0.030955 Hartree
Number of active orbitals = 18
Number of active electrons = 9
EMax =   4.33e-06
thresh =   1.00e-06
Generating Pseudo-Fermi distribution of occupation numbers.
--
# Rescaled active electrons =      9.000
Writing occupation numbers to disk ...
---- Fractional Occupation Number Information End ----


---- Fractional Occupation Number Information ----
Temperature =    300.000 K
Fermi level =   0.018752 Hartree
HOMO-LUMO gap =   0.147711 Hartree
Number of active orbitals = 18
Number of active electrons = 9
EMax =   4.33e-06
thresh =   1.00e-06
Generating Pseudo-Fermi distribution of occupation numbers.
--
# Rescaled active electrons =      9.000
Writing occupation numbers to disk ...
---- Fractional Occupation Number Information End ----

   57   -1104.8246666127      4.33E-06

---- Fractional Occupation Number Information ----
Temperature =    300.000 K
Fermi level =   0.078333 Hartree
HOMO-LUMO gap =   0.030950 Hartree
Number of active orbitals = 18
Number of active electrons = 9
EMax =   8.40e-06
thresh =   1.00e-06
Generating Pseudo-Fermi distribution of occupation numbers.
--
# Rescaled active electrons =      9.000
Writing occupation numbers to disk ...
---- Fractional Occupation Number Information End ----


---- Fractional Occupation Number Information ----
Temperature =    300.000 K
Fermi level =   0.018747 Hartree
HOMO-LUMO gap =   0.147704 Hartree
Number of active orbitals = 18
Number of active electrons = 9
EMax =   8.40e-06
thresh =   1.00e-06
Generating Pseudo-Fermi distribution of occupation numbers.
--
# Rescaled active electrons =      9.000
Writing occupation numbers to disk ...
---- Fractional Occupation Number Information End ----

   58   -1104.8245194510      8.40E-06

---- Fractional Occupation Number Information ----
Temperature =    300.000 K
Fermi level =   0.078297 Hartree
HOMO-LUMO gap =   0.030916 Hartree
Number of active orbitals = 18
Number of active electrons = 9
EMax =   1.05e-05
thresh =   1.00e-06
Generating Pseudo-Fermi distribution of occupation numbers.
--
# Rescaled active electrons =      9.000
Writing occupation numbers to disk ...
---- Fractional Occupation Number Information End ----


---- Fractional Occupation Number Information ----
Temperature =    300.000 K
Fermi level =   0.018700 Hartree
HOMO-LUMO gap =   0.147673 Hartree
Number of active orbitals = 18
Number of active electrons = 9
EMax =   1.05e-05
thresh =   1.00e-06
Generating Pseudo-Fermi distribution of occupation numbers.
--
# Rescaled active electrons =      9.000
Writing occupation numbers to disk ...
---- Fractional Occupation Number Information End ----

   59   -1104.8244722320      1.05E-05

---- Fractional Occupation Number Information ----
Temperature =    300.000 K
Fermi level =   0.078291 Hartree
HOMO-LUMO gap =   0.030906 Hartree
Number of active orbitals = 18
Number of active electrons = 9
EMax =   1.54e-05
thresh =   1.00e-06
Generating Pseudo-Fermi distribution of occupation numbers.
--
# Rescaled active electrons =      9.000
Writing occupation numbers to disk ...
---- Fractional Occupation Number Information End ----


---- Fractional Occupation Number Information ----
Temperature =    300.000 K
Fermi level =   0.018694 Hartree
HOMO-LUMO gap =   0.147664 Hartree
Number of active orbitals = 18
Number of active electrons = 9
EMax =   1.54e-05
thresh =   1.00e-06
Generating Pseudo-Fermi distribution of occupation numbers.
--
# Rescaled active electrons =      9.000
Writing occupation numbers to disk ...
---- Fractional Occupation Number Information End ----

   60   -1104.8245613083      1.54E-05

---- Fractional Occupation Number Information ----
Temperature =    300.000 K
Fermi level =   0.078292 Hartree
HOMO-LUMO gap =   0.030905 Hartree
Number of active orbitals = 18
Number of active electrons = 9
EMax =   1.80e-05
thresh =   1.00e-06
Generating Pseudo-Fermi distribution of occupation numbers.
--
# Rescaled active electrons =      9.000
Writing occupation numbers to disk ...
---- Fractional Occupation Number Information End ----


---- Fractional Occupation Number Information ----
Temperature =    300.000 K
Fermi level =   0.018698 Hartree
HOMO-LUMO gap =   0.147666 Hartree
Number of active orbitals = 18
Number of active electrons = 9
EMax =   1.80e-05
thresh =   1.00e-06
Generating Pseudo-Fermi distribution of occupation numbers.
--
# Rescaled active electrons =      9.000
Writing occupation numbers to disk ...
---- Fractional Occupation Number Information End ----

   61   -1104.8245274317      1.80E-05

---- Fractional Occupation Number Information ----
Temperature =    300.000 K
Fermi level =   0.078301 Hartree
HOMO-LUMO gap =   0.030913 Hartree
Number of active orbitals = 18
Number of active electrons = 9
EMax =   1.34e-05
thresh =   1.00e-06
Generating Pseudo-Fermi distribution of occupation numbers.
--
# Rescaled active electrons =      9.000
Writing occupation numbers to disk ...
---- Fractional Occupation Number Information End ----


---- Fractional Occupation Number Information ----
Temperature =    300.000 K
Fermi level =   0.018709 Hartree
HOMO-LUMO gap =   0.147673 Hartree
Number of active orbitals = 18
Number of active electrons = 9
EMax =   1.34e-05
thresh =   1.00e-06
Generating Pseudo-Fermi distribution of occupation numbers.
--
# Rescaled active electrons =      9.000
Writing occupation numbers to disk ...
---- Fractional Occupation Number Information End ----

   62   -1104.8247010790      1.34E-05

---- Fractional Occupation Number Information ----
Temperature =    300.000 K
Fermi level =   0.078297 Hartree
HOMO-LUMO gap =   0.030914 Hartree
Number of active orbitals = 18
Number of active electrons = 9
EMax =   7.89e-06
thresh =   1.00e-06
Generating Pseudo-Fermi distribution of occupation numbers.
--
# Rescaled active electrons =      9.000
Writing occupation numbers to disk ...
---- Fractional Occupation Number Information End ----


---- Fractional Occupation Number Information ----
Temperature =    300.000 K
Fermi level =   0.018702 Hartree
HOMO-LUMO gap =   0.147677 Hartree
Number of active orbitals = 18
Number of active electrons = 9
EMax =   7.89e-06
thresh =   1.00e-06
Generating Pseudo-Fermi distribution of occupation numbers.
--
# Rescaled active electrons =      9.000
Writing occupation numbers to disk ...
---- Fractional Occupation Number Information End ----

   63   -1104.8246954556      7.89E-06

---- Fractional Occupation Number Information ----
Temperature =    300.000 K
Fermi level =   0.078284 Hartree
HOMO-LUMO gap =   0.030905 Hartree
Number of active orbitals = 18
Number of active electrons = 9
EMax =   1.01e-05
thresh =   1.00e-06
Generating Pseudo-Fermi distribution of occupation numbers.
--
# Rescaled active electrons =      9.000
Writing occupation numbers to disk ...
---- Fractional Occupation Number Information End ----


---- Fractional Occupation Number Information ----
Temperature =    300.000 K
Fermi level =   0.018686 Hartree
HOMO-LUMO gap =   0.147675 Hartree
Number of active orbitals = 18
Number of active electrons = 9
EMax =   1.01e-05
thresh =   1.00e-06
Generating Pseudo-Fermi distribution of occupation numbers.
--
# Rescaled active electrons =      9.000
Writing occupation numbers to disk ...
---- Fractional Occupation Number Information End ----

   64   -1104.8246041885      1.01E-05

---- Fractional Occupation Number Information ----
Temperature =    300.000 K
Fermi level =   0.078285 Hartree
HOMO-LUMO gap =   0.030899 Hartree
Number of active orbitals = 18
Number of active electrons = 9
EMax =   9.64e-06
thresh =   1.00e-06
Generating Pseudo-Fermi distribution of occupation numbers.
--
# Rescaled active electrons =      9.000
Writing occupation numbers to disk ...
---- Fractional Occupation Number Information End ----


---- Fractional Occupation Number Information ----
Temperature =    300.000 K
Fermi level =   0.018692 Hartree
HOMO-LUMO gap =   0.147666 Hartree
Number of active orbitals = 18
Number of active electrons = 9
EMax =   9.64e-06
thresh =   1.00e-06
Generating Pseudo-Fermi distribution of occupation numbers.
--
# Rescaled active electrons =      9.000
Writing occupation numbers to disk ...
---- Fractional Occupation Number Information End ----

   65   -1104.8246556405      9.64E-06

---- Fractional Occupation Number Information ----
Temperature =    300.000 K
Fermi level =   0.078237 Hartree
HOMO-LUMO gap =   0.030843 Hartree
Number of active orbitals = 18
Number of active electrons = 9
EMax =   8.81e-06
thresh =   1.00e-06
Generating Pseudo-Fermi distribution of occupation numbers.
--
# Rescaled active electrons =      9.000
Writing occupation numbers to disk ...
---- Fractional Occupation Number Information End ----


---- Fractional Occupation Number Information ----
Temperature =    300.000 K
Fermi level =   0.018634 Hartree
HOMO-LUMO gap =   0.147615 Hartree
Number of active orbitals = 18
Number of active electrons = 9
EMax =   8.81e-06
thresh =   1.00e-06
Generating Pseudo-Fermi distribution of occupation numbers.
--
# Rescaled active electrons =      9.000
Writing occupation numbers to disk ...
---- Fractional Occupation Number Information End ----

   66   -1104.8248713443      8.81E-06

---- Fractional Occupation Number Information ----
Temperature =    300.000 K
Fermi level =   0.078220 Hartree
HOMO-LUMO gap =   0.030820 Hartree
Number of active orbitals = 18
Number of active electrons = 9
EMax =   2.14e-05
thresh =   1.00e-06
Generating Pseudo-Fermi distribution of occupation numbers.
--
# Rescaled active electrons =      9.000
Writing occupation numbers to disk ...
---- Fractional Occupation Number Information End ----


---- Fractional Occupation Number Information ----
Temperature =    300.000 K
Fermi level =   0.018611 Hartree
HOMO-LUMO gap =   0.147587 Hartree
Number of active orbitals = 18
Number of active electrons = 9
EMax =   2.14e-05
thresh =   1.00e-06
Generating Pseudo-Fermi distribution of occupation numbers.
--
# Rescaled active electrons =      9.000
Writing occupation numbers to disk ...
---- Fractional Occupation Number Information End ----

   67   -1104.8247314826      2.14E-05

---- Fractional Occupation Number Information ----
Temperature =    300.000 K
Fermi level =   0.078267 Hartree
HOMO-LUMO gap =   0.030883 Hartree
Number of active orbitals = 18
Number of active electrons = 9
EMax =   2.12e-05
thresh =   1.00e-06
Generating Pseudo-Fermi distribution of occupation numbers.
--
# Rescaled active electrons =      9.000
Writing occupation numbers to disk ...
---- Fractional Occupation Number Information End ----


---- Fractional Occupation Number Information ----
Temperature =    300.000 K
Fermi level =   0.018663 Hartree
HOMO-LUMO gap =   0.147649 Hartree
Number of active orbitals = 18
Number of active electrons = 9
EMax =   2.12e-05
thresh =   1.00e-06
Generating Pseudo-Fermi distribution of occupation numbers.
--
# Rescaled active electrons =      9.000
Writing occupation numbers to disk ...
---- Fractional Occupation Number Information End ----

   68   -1104.8245297885      2.12E-05

---- Fractional Occupation Number Information ----
Temperature =    300.000 K
Fermi level =   0.078282 Hartree
HOMO-LUMO gap =   0.030898 Hartree
Number of active orbitals = 18
Number of active electrons = 9
EMax =   8.54e-06
thresh =   1.00e-06
Generating Pseudo-Fermi distribution of occupation numbers.
--
# Rescaled active electrons =      9.000
Writing occupation numbers to disk ...
---- Fractional Occupation Number Information End ----


---- Fractional Occupation Number Information ----
Temperature =    300.000 K
Fermi level =   0.018685 Hartree
HOMO-LUMO gap =   0.147665 Hartree
Number of active orbitals = 18
Number of active electrons = 9
EMax =   8.54e-06
thresh =   1.00e-06
Generating Pseudo-Fermi distribution of occupation numbers.
--
# Rescaled active electrons =      9.000
Writing occupation numbers to disk ...
---- Fractional Occupation Number Information End ----

   69   -1104.8246668215      8.54E-06

---- Fractional Occupation Number Information ----
Temperature =    300.000 K
Fermi level =   0.078305 Hartree
HOMO-LUMO gap =   0.030926 Hartree
Number of active orbitals = 18
Number of active electrons = 9
EMax =   6.74e-06
thresh =   1.00e-06
Generating Pseudo-Fermi distribution of occupation numbers.
--
# Rescaled active electrons =      9.000
Writing occupation numbers to disk ...
---- Fractional Occupation Number Information End ----


---- Fractional Occupation Number Information ----
Temperature =    300.000 K
Fermi level =   0.018713 Hartree
HOMO-LUMO gap =   0.147694 Hartree
Number of active orbitals = 18
Number of active electrons = 9
EMax =   6.74e-06
thresh =   1.00e-06
Generating Pseudo-Fermi distribution of occupation numbers.
--
# Rescaled active electrons =      9.000
Writing occupation numbers to disk ...
---- Fractional Occupation Number Information End ----

   70   -1104.8246957695      6.74E-06

---- Fractional Occupation Number Information ----
Temperature =    300.000 K
Fermi level =   0.078310 Hartree
HOMO-LUMO gap =   0.030932 Hartree
Number of active orbitals = 18
Number of active electrons = 9
EMax =   1.54e-05
thresh =   1.00e-06
Generating Pseudo-Fermi distribution of occupation numbers.
--
# Rescaled active electrons =      9.000
Writing occupation numbers to disk ...
---- Fractional Occupation Number Information End ----


---- Fractional Occupation Number Information ----
Temperature =    300.000 K
Fermi level =   0.018715 Hartree
HOMO-LUMO gap =   0.147694 Hartree
Number of active orbitals = 18
Number of active electrons = 9
EMax =   1.54e-05
thresh =   1.00e-06
Generating Pseudo-Fermi distribution of occupation numbers.
--
# Rescaled active electrons =      9.000
Writing occupation numbers to disk ...
---- Fractional Occupation Number Information End ----

   71   -1104.8248058156      1.54E-05

---- Fractional Occupation Number Information ----
Temperature =    300.000 K
Fermi level =   0.078280 Hartree
HOMO-LUMO gap =   0.030893 Hartree
Number of active orbitals = 18
Number of active electrons = 9
EMax =   2.08e-05
thresh =   1.00e-06
Generating Pseudo-Fermi distribution of occupation numbers.
--
# Rescaled active electrons =      9.000
Writing occupation numbers to disk ...
---- Fractional Occupation Number Information End ----


---- Fractional Occupation Number Information ----
Temperature =    300.000 K
Fermi level =   0.018678 Hartree
HOMO-LUMO gap =   0.147656 Hartree
Number of active orbitals = 18
Number of active electrons = 9
EMax =   2.08e-05
thresh =   1.00e-06
Generating Pseudo-Fermi distribution of occupation numbers.
--
# Rescaled active electrons =      9.000
Writing occupation numbers to disk ...
---- Fractional Occupation Number Information End ----

   72   -1104.8246818018      2.08E-05

---- Fractional Occupation Number Information ----
Temperature =    300.000 K
Fermi level =   0.078277 Hartree
HOMO-LUMO gap =   0.030890 Hartree
Number of active orbitals = 18
Number of active electrons = 9
EMax =   7.54e-06
thresh =   1.00e-06
Generating Pseudo-Fermi distribution of occupation numbers.
--
# Rescaled active electrons =      9.000
Writing occupation numbers to disk ...
---- Fractional Occupation Number Information End ----


---- Fractional Occupation Number Information ----
Temperature =    300.000 K
Fermi level =   0.018674 Hartree
HOMO-LUMO gap =   0.147651 Hartree
Number of active orbitals = 18
Number of active electrons = 9
EMax =   7.54e-06
thresh =   1.00e-06
Generating Pseudo-Fermi distribution of occupation numbers.
--
# Rescaled active electrons =      9.000
Writing occupation numbers to disk ...
---- Fractional Occupation Number Information End ----

[...]
---- Fractional Occupation Number Information End ----


---- Fractional Occupation Number Information ----
Temperature =    300.000 K
Fermi level =   0.018967 Hartree
HOMO-LUMO gap =   0.147979 Hartree
Number of active orbitals = 18
Number of active electrons = 9
EMax =   1.07e-05
thresh =   1.00e-06
Generating Pseudo-Fermi distribution of occupation numbers.
--
# Rescaled active electrons =      9.000
Writing occupation numbers to disk ...
---- Fractional Occupation Number Information End ----

  179   -1104.8246374956      1.07E-05

---- Fractional Occupation Number Information ----
Temperature =    300.000 K
Fermi level =   0.078525 Hartree
HOMO-LUMO gap =   0.031219 Hartree
Number of active orbitals = 18
Number of active electrons = 9
EMax =   4.64e-06
thresh =   1.00e-06
Generating Pseudo-Fermi distribution of occupation numbers.
--
# Rescaled active electrons =      9.000
Writing occupation numbers to disk ...
---- Fractional Occupation Number Information End ----


---- Fractional Occupation Number Information ----
Temperature =    300.000 K
Fermi level =   0.018977 Hartree
HOMO-LUMO gap =   0.148007 Hartree
Number of active orbitals = 18
Number of active electrons = 9
EMax =   4.64e-06
thresh =   1.00e-06
Generating Pseudo-Fermi distribution of occupation numbers.
--
# Rescaled active electrons =      9.000
Writing occupation numbers to disk ...
---- Fractional Occupation Number Information End ----

  180   -1104.8245889345      4.64E-06

---- Fractional Occupation Number Information ----
Temperature =    300.000 K
Fermi level =   0.078520 Hartree
HOMO-LUMO gap =   0.031213 Hartree
Number of active orbitals = 18
Number of active electrons = 9
EMax =   6.00e-06
thresh =   1.00e-06
Generating Pseudo-Fermi distribution of occupation numbers.
--
# Rescaled active electrons =      9.000
Writing occupation numbers to disk ...
---- Fractional Occupation Number Information End ----


---- Fractional Occupation Number Information ----
Temperature =    300.000 K
Fermi level =   0.018972 Hartree
HOMO-LUMO gap =   0.148000 Hartree
Number of active orbitals = 18
Number of active electrons = 9
EMax =   6.00e-06
thresh =   1.00e-06
Generating Pseudo-Fermi distribution of occupation numbers.
--
# Rescaled active electrons =      9.000
Writing occupation numbers to disk ...
---- Fractional Occupation Number Information End ----

  181   -1104.8245815087      6.00E-06

---- Fractional Occupation Number Information ----
Temperature =    300.000 K
Fermi level =   0.078491 Hartree
HOMO-LUMO gap =   0.031169 Hartree
Number of active orbitals = 18
Number of active electrons = 9
EMax =   6.41e-06
thresh =   1.00e-06
Generating Pseudo-Fermi distribution of occupation numbers.
--
# Rescaled active electrons =      9.000
Writing occupation numbers to disk ...
---- Fractional Occupation Number Information End ----


---- Fractional Occupation Number Information ----
Temperature =    300.000 K
Fermi level =   0.018939 Hartree
HOMO-LUMO gap =   0.147951 Hartree
Number of active orbitals = 18
Number of active electrons = 9
EMax =   6.41e-06
thresh =   1.00e-06
Generating Pseudo-Fermi distribution of occupation numbers.
--
# Rescaled active electrons =      9.000
Writing occupation numbers to disk ...
---- Fractional Occupation Number Information End ----

  182   -1104.8245867370      6.41E-06

---- Fractional Occupation Number Information ----
Temperature =    300.000 K
Fermi level =   0.078487 Hartree
HOMO-LUMO gap =   0.031160 Hartree
Number of active orbitals = 18
Number of active electrons = 9
EMax =   5.28e-06
thresh =   1.00e-06
Generating Pseudo-Fermi distribution of occupation numbers.
--
# Rescaled active electrons =      9.000
Writing occupation numbers to disk ...
---- Fractional Occupation Number Information End ----


---- Fractional Occupation Number Information ----
Temperature =    300.000 K
Fermi level =   0.018934 Hartree
HOMO-LUMO gap =   0.147942 Hartree
Number of active orbitals = 18
Number of active electrons = 9
EMax =   5.28e-06
thresh =   1.00e-06
Generating Pseudo-Fermi distribution of occupation numbers.
--
# Rescaled active electrons =      9.000
Writing occupation numbers to disk ...
---- Fractional Occupation Number Information End ----

  183   -1104.8246309603      5.28E-06

---- Fractional Occupation Number Information ----
Temperature =    300.000 K
Fermi level =   0.078463 Hartree
HOMO-LUMO gap =   0.031126 Hartree
Number of active orbitals = 18
Number of active electrons = 9
EMax =   3.34e-06
thresh =   1.00e-06
Generating Pseudo-Fermi distribution of occupation numbers.
--
# Rescaled active electrons =      9.000
Writing occupation numbers to disk ...
---- Fractional Occupation Number Information End ----


---- Fractional Occupation Number Information ----
Temperature =    300.000 K
Fermi level =   0.018906 Hartree
HOMO-LUMO gap =   0.147899 Hartree
Number of active orbitals = 18
Number of active electrons = 9
EMax =   3.34e-06
thresh =   1.00e-06
Generating Pseudo-Fermi distribution of occupation numbers.
--
# Rescaled active electrons =      9.000
Writing occupation numbers to disk ...
---- Fractional Occupation Number Information End ----

  184   -1104.8246248487      3.34E-06

---- Fractional Occupation Number Information ----
Temperature =    300.000 K
Fermi level =   0.078466 Hartree
HOMO-LUMO gap =   0.031130 Hartree
Number of active orbitals = 18
Number of active electrons = 9
EMax =   2.02e-06
thresh =   1.00e-06
Generating Pseudo-Fermi distribution of occupation numbers.
--
# Rescaled active electrons =      9.000
Writing occupation numbers to disk ...
---- Fractional Occupation Number Information End ----


---- Fractional Occupation Number Information ----
Temperature =    300.000 K
Fermi level =   0.018909 Hartree
HOMO-LUMO gap =   0.147904 Hartree
Number of active orbitals = 18
Number of active electrons = 9
EMax =   2.02e-06
thresh =   1.00e-06
Generating Pseudo-Fermi distribution of occupation numbers.
--
# Rescaled active electrons =      9.000
Writing occupation numbers to disk ...
---- Fractional Occupation Number Information End ----

  185   -1104.8247496078      2.02E-06

---- Fractional Occupation Number Information ----
Temperature =    300.000 K
Fermi level =   0.078441 Hartree
HOMO-LUMO gap =   0.031092 Hartree
Number of active orbitals = 18
Number of active electrons = 9
EMax =   2.73e-06
thresh =   1.00e-06
Generating Pseudo-Fermi distribution of occupation numbers.
--
# Rescaled active electrons =      9.000
Writing occupation numbers to disk ...
---- Fractional Occupation Number Information End ----


---- Fractional Occupation Number Information ----
Temperature =    300.000 K
Fermi level =   0.018879 Hartree
HOMO-LUMO gap =   0.147858 Hartree
Number of active orbitals = 18
Number of active electrons = 9
EMax =   2.73e-06
thresh =   1.00e-06
Generating Pseudo-Fermi distribution of occupation numbers.
--
# Rescaled active electrons =      9.000
Writing occupation numbers to disk ...
---- Fractional Occupation Number Information End ----

  186   -1104.8247178539      2.73E-06

---- Fractional Occupation Number Information ----
Temperature =    300.000 K
Fermi level =   0.078436 Hartree
HOMO-LUMO gap =   0.031085 Hartree
Number of active orbitals = 18
Number of active electrons = 9
EMax =   1.04e-05
thresh =   1.00e-06
Generating Pseudo-Fermi distribution of occupation numbers.
--
# Rescaled active electrons =      9.000
Writing occupation numbers to disk ...
---- Fractional Occupation Number Information End ----


---- Fractional Occupation Number Information ----
Temperature =    300.000 K
Fermi level =   0.018873 Hartree
HOMO-LUMO gap =   0.147850 Hartree
Number of active orbitals = 18
Number of active electrons = 9
EMax =   1.04e-05
thresh =   1.00e-06
Generating Pseudo-Fermi distribution of occupation numbers.
--
# Rescaled active electrons =      9.000
Writing occupation numbers to disk ...
---- Fractional Occupation Number Information End ----

  187   -1104.8246049397      1.04E-05

---- Fractional Occupation Number Information ----
Temperature =    300.000 K
Fermi level =   0.078431 Hartree
HOMO-LUMO gap =   0.031079 Hartree
Number of active orbitals = 18
Number of active electrons = 9
EMax =   9.10e-06
thresh =   1.00e-06
Generating Pseudo-Fermi distribution of occupation numbers.
--
# Rescaled active electrons =      9.000
Writing occupation numbers to disk ...
---- Fractional Occupation Number Information End ----


---- Fractional Occupation Number Information ----
Temperature =    300.000 K
Fermi level =   0.018866 Hartree
HOMO-LUMO gap =   0.147842 Hartree
Number of active orbitals = 18
Number of active electrons = 9
EMax =   9.10e-06
thresh =   1.00e-06
Generating Pseudo-Fermi distribution of occupation numbers.
--
# Rescaled active electrons =      9.000
Writing occupation numbers to disk ...
---- Fractional Occupation Number Information End ----

  188   -1104.8246359185      9.10E-06

---- Fractional Occupation Number Information ----
Temperature =    300.000 K
Fermi level =   0.078427 Hartree
HOMO-LUMO gap =   0.031073 Hartree
Number of active orbitals = 18
Number of active electrons = 9
EMax =   7.77e-06
thresh =   1.00e-06
Generating Pseudo-Fermi distribution of occupation numbers.
--
# Rescaled active electrons =      9.000
Writing occupation numbers to disk ...
---- Fractional Occupation Number Information End ----


---- Fractional Occupation Number Information ----
Temperature =    300.000 K
Fermi level =   0.018861 Hartree
HOMO-LUMO gap =   0.147836 Hartree
Number of active orbitals = 18
Number of active electrons = 9
EMax =   7.77e-06
thresh =   1.00e-06
Generating Pseudo-Fermi distribution of occupation numbers.
--
# Rescaled active electrons =      9.000
Writing occupation numbers to disk ...
---- Fractional Occupation Number Information End ----

  189   -1104.8246128963      7.77E-06

---- Fractional Occupation Number Information ----
Temperature =    300.000 K
Fermi level =   0.078435 Hartree
HOMO-LUMO gap =   0.031080 Hartree
Number of active orbitals = 18
Number of active electrons = 9
EMax =   4.63e-06
thresh =   1.00e-06
Generating Pseudo-Fermi distribution of occupation numbers.
--
# Rescaled active electrons =      9.000
Writing occupation numbers to disk ...
---- Fractional Occupation Number Information End ----


---- Fractional Occupation Number Information ----
Temperature =    300.000 K
Fermi level =   0.018872 Hartree
HOMO-LUMO gap =   0.147842 Hartree
Number of active orbitals = 18
Number of active electrons = 9
EMax =   4.63e-06
thresh =   1.00e-06
Generating Pseudo-Fermi distribution of occupation numbers.
--
# Rescaled active electrons =      9.000
Writing occupation numbers to disk ...
---- Fractional Occupation Number Information End ----

  190   -1104.8246632767      4.63E-06

---- Fractional Occupation Number Information ----
Temperature =    300.000 K
Fermi level =   0.078436 Hartree
HOMO-LUMO gap =   0.031082 Hartree
Number of active orbitals = 18
Number of active electrons = 9
EMax =   1.85e-05
thresh =   1.00e-06
Generating Pseudo-Fermi distribution of occupation numbers.
--
# Rescaled active electrons =      9.000
Writing occupation numbers to disk ...
---- Fractional Occupation Number Information End ----


---- Fractional Occupation Number Information ----
Temperature =    300.000 K
Fermi level =   0.018874 Hartree
HOMO-LUMO gap =   0.147845 Hartree
Number of active orbitals = 18
Number of active electrons = 9
EMax =   1.85e-05
thresh =   1.00e-06
Generating Pseudo-Fermi distribution of occupation numbers.
--
# Rescaled active electrons =      9.000
Writing occupation numbers to disk ...
---- Fractional Occupation Number Information End ----

  191   -1104.8245517652      1.85E-05

---- Fractional Occupation Number Information ----
Temperature =    300.000 K
Fermi level =   0.078453 Hartree
HOMO-LUMO gap =   0.031107 Hartree
Number of active orbitals = 18
Number of active electrons = 9
EMax =   1.95e-05
thresh =   1.00e-06
Generating Pseudo-Fermi distribution of occupation numbers.
--
# Rescaled active electrons =      9.000
Writing occupation numbers to disk ...
---- Fractional Occupation Number Information End ----


---- Fractional Occupation Number Information ----
Temperature =    300.000 K
Fermi level =   0.018895 Hartree
HOMO-LUMO gap =   0.147875 Hartree
Number of active orbitals = 18
Number of active electrons = 9
EMax =   1.95e-05
thresh =   1.00e-06
Generating Pseudo-Fermi distribution of occupation numbers.
--
# Rescaled active electrons =      9.000
Writing occupation numbers to disk ...
---- Fractional Occupation Number Information End ----

  192   -1104.8245456924      1.95E-05

---- Fractional Occupation Number Information ----
Temperature =    300.000 K
Fermi level =   0.078450 Hartree
HOMO-LUMO gap =   0.031102 Hartree
Number of active orbitals = 18
Number of active electrons = 9
EMax =   6.67e-06
thresh =   1.00e-06
Generating Pseudo-Fermi distribution of occupation numbers.
--
# Rescaled active electrons =      9.000
Writing occupation numbers to disk ...
---- Fractional Occupation Number Information End ----


---- Fractional Occupation Number Information ----
Temperature =    300.000 K
Fermi level =   0.018890 Hartree
HOMO-LUMO gap =   0.147868 Hartree
Number of active orbitals = 18
Number of active electrons = 9
EMax =   6.67e-06
thresh =   1.00e-06
Generating Pseudo-Fermi distribution of occupation numbers.
--
# Rescaled active electrons =      9.000
Writing occupation numbers to disk ...
---- Fractional Occupation Number Information End ----

  193   -1104.8245798506      6.67E-06

---- Fractional Occupation Number Information ----
Temperature =    300.000 K
Fermi level =   0.078452 Hartree
HOMO-LUMO gap =   0.031105 Hartree
Number of active orbitals = 18
Number of active electrons = 9
EMax =   4.28e-06
thresh =   1.00e-06
Generating Pseudo-Fermi distribution of occupation numbers.
--
# Rescaled active electrons =      9.000
Writing occupation numbers to disk ...
---- Fractional Occupation Number Information End ----


---- Fractional Occupation Number Information ----
Temperature =    300.000 K
Fermi level =   0.018889 Hartree
HOMO-LUMO gap =   0.147864 Hartree
Number of active orbitals = 18
Number of active electrons = 9
EMax =   4.28e-06
thresh =   1.00e-06
Generating Pseudo-Fermi distribution of occupation numbers.
--
# Rescaled active electrons =      9.000
Writing occupation numbers to disk ...
---- Fractional Occupation Number Information End ----

  194   -1104.8245931620      4.28E-06

---- Fractional Occupation Number Information ----
Temperature =    300.000 K
Fermi level =   0.078440 Hartree
HOMO-LUMO gap =   0.031089 Hartree
Number of active orbitals = 18
Number of active electrons = 9
EMax =   4.84e-06
thresh =   1.00e-06
Generating Pseudo-Fermi distribution of occupation numbers.
--
# Rescaled active electrons =      9.000
Writing occupation numbers to disk ...
---- Fractional Occupation Number Information End ----


---- Fractional Occupation Number Information ----
Temperature =    300.000 K
Fermi level =   0.018876 Hartree
HOMO-LUMO gap =   0.147850 Hartree
Number of active orbitals = 18
Number of active electrons = 9
EMax =   4.84e-06
thresh =   1.00e-06
Generating Pseudo-Fermi distribution of occupation numbers.
--
# Rescaled active electrons =      9.000
Writing occupation numbers to disk ...
---- Fractional Occupation Number Information End ----

  195   -1104.8242837821      4.84E-06

---- Fractional Occupation Number Information ----
Temperature =    300.000 K
Fermi level =   0.078440 Hartree
HOMO-LUMO gap =   0.031090 Hartree
Number of active orbitals = 18
Number of active electrons = 9
EMax =   5.13e-06
thresh =   1.00e-06
Generating Pseudo-Fermi distribution of occupation numbers.
--
# Rescaled active electrons =      9.000
Writing occupation numbers to disk ...
---- Fractional Occupation Number Information End ----


---- Fractional Occupation Number Information ----
Temperature =    300.000 K
Fermi level =   0.018879 Hartree
HOMO-LUMO gap =   0.147854 Hartree
Number of active orbitals = 18
Number of active electrons = 9
EMax =   5.13e-06
thresh =   1.00e-06
Generating Pseudo-Fermi distribution of occupation numbers.
--
# Rescaled active electrons =      9.000
Writing occupation numbers to disk ...
---- Fractional Occupation Number Information End ----

  196   -1104.8245151964      5.13E-06

---- Fractional Occupation Number Information ----
Temperature =    300.000 K
Fermi level =   0.078441 Hartree
HOMO-LUMO gap =   0.031090 Hartree
Number of active orbitals = 18
Number of active electrons = 9
EMax =   1.23e-05
thresh =   1.00e-06
Generating Pseudo-Fermi distribution of occupation numbers.
--
# Rescaled active electrons =      9.000
Writing occupation numbers to disk ...
---- Fractional Occupation Number Information End ----


---- Fractional Occupation Number Information ----
Temperature =    300.000 K
Fermi level =   0.018879 Hartree
HOMO-LUMO gap =   0.147854 Hartree
Number of active orbitals = 18
Number of active electrons = 9
EMax =   1.23e-05
thresh =   1.00e-06
Generating Pseudo-Fermi distribution of occupation numbers.
--
# Rescaled active electrons =      9.000
Writing occupation numbers to disk ...
---- Fractional Occupation Number Information End ----

  197   -1104.8245982878      1.23E-05

---- Fractional Occupation Number Information ----
Temperature =    300.000 K
Fermi level =   0.078435 Hartree
HOMO-LUMO gap =   0.031082 Hartree
Number of active orbitals = 18
Number of active electrons = 9
EMax =   1.53e-05
thresh =   1.00e-06
Generating Pseudo-Fermi distribution of occupation numbers.
--
# Rescaled active electrons =      9.000
Writing occupation numbers to disk ...
---- Fractional Occupation Number Information End ----


---- Fractional Occupation Number Information ----
Temperature =    300.000 K
Fermi level =   0.018871 Hartree
HOMO-LUMO gap =   0.147844 Hartree
Number of active orbitals = 18
Number of active electrons = 9
EMax =   1.53e-05
thresh =   1.00e-06
Generating Pseudo-Fermi distribution of occupation numbers.
--
# Rescaled active electrons =      9.000
Writing occupation numbers to disk ...
---- Fractional Occupation Number Information End ----

  198   -1104.8246032258      1.53E-05

---- Fractional Occupation Number Information ----
Temperature =    300.000 K
Fermi level =   0.078434 Hartree
HOMO-LUMO gap =   0.031081 Hartree
Number of active orbitals = 18
Number of active electrons = 9
EMax =   1.17e-05
thresh =   1.00e-06
Generating Pseudo-Fermi distribution of occupation numbers.
--
# Rescaled active electrons =      9.000
Writing occupation numbers to disk ...
---- Fractional Occupation Number Information End ----


---- Fractional Occupation Number Information ----
Temperature =    300.000 K
Fermi level =   0.018871 Hartree
HOMO-LUMO gap =   0.147842 Hartree
Number of active orbitals = 18
Number of active electrons = 9
EMax =   1.17e-05
thresh =   1.00e-06
Generating Pseudo-Fermi distribution of occupation numbers.
--
# Rescaled active electrons =      9.000
Writing occupation numbers to disk ...
---- Fractional Occupation Number Information End ----

  199   -1104.8245368863      1.17E-05

---- Fractional Occupation Number Information ----
Temperature =    300.000 K
Fermi level =   0.078430 Hartree
HOMO-LUMO gap =   0.031076 Hartree
Number of active orbitals = 18
Number of active electrons = 9
EMax =   9.36e-07
thresh =   1.00e-06
---- Fractional Occupation Number Information End ----


---- Fractional Occupation Number Information ----
Temperature =    300.000 K
Fermi level =   0.018866 Hartree
HOMO-LUMO gap =   0.147837 Hartree
Number of active orbitals = 18
Number of active electrons = 9
EMax =   9.36e-07
thresh =   1.00e-06
---- Fractional Occupation Number Information End ----

  200   -1104.8245543820      9.36E-07    Convergence failure

 Q-Chem fatal error occurred in module /project/projectdirs/jcesr/qchem/qc44/cnl_qc441/compile/cori/qc_src/scfman/scfman.C, line 4525:

 SCF failed to converge

