srun -N 1 --ntasks-per-node 16 --nodelist nid01048 /global/project/projectdirs/jcesr/qchem/qc44/cnl_qc441/dist/exe/qcprog.cori.exe .pt_charged_dft_-160.0.in.28727.qcin.1 /dev/shm/eg_qchem/qchem28727/
Process 0 of 16 is on nid01048 - thread support 0
Process 1 of 16 is on nid01048 - thread support 0
Process 2 of 16 is on nid01048 - thread support 0
Process 3 of 16 is on nid01048 - thread support 0
Process 4 of 16 is on nid01048 - thread support 0
Process 5 of 16 is on nid01048 - thread support 0
Process 6 of 16 is on nid01048 - thread support 0
Process 15 of 16 is on nid01048 - thread support 0
initial socket setup ...start
initial socket setup ...done 
now start server 0 ... 
nid01048 10.128.4
Q-Chem Developer Version! Running on 10.128.4.*
                  Welcome to Q-Chem
     A Quantum Leap Into The Future Of Chemistry


 Q-Chem 4.4, Q-Chem, Inc., Pleasanton, CA (2016)

 Y. Shao,  Z. Gan,  E. Epifanovsky,  A. T. B. Gilbert,  M. Wormit,  
 J. Kussmann,  A. W. Lange,  A. Behn,  J. Deng,  X. Feng,  D. Ghosh,  
 M. Goldey,  P. R. Horn,  L. D. Jacobson,  I. Kaliman,  F.Rob,  
 R. Z. Khaliullin,  T. Kus,  A. Landau,  J. Liu,  E. I. Proynov,  Y. M. Rhee,  
 R. M. Richard,  M. A. Rohrdanz,  R. P. Steele,  E. J. Sundstrom,  
 H. L. Woodcock III,  P. M. Zimmerman,  D. Zuev,  B. Albrecht,  E. Alguire,  
 B. Austin,  S. A. Baeppler,  G. J. O. Beran,  Y. A. Bernard,  E. Berquist,  
 K. Brandhorst,  K. B. Bravaya,  S. T. Brown,  D. Casanova,  C.-M. Chang,  
 Y. Chen,  S. H. Chien,  K. D. Closser,  M. P. Coons,  D. L. Crittenden,  
 S. Dasgupta,  M. Diedenhofen,  R. A. DiStasio Jr.,  H. Do,  A. D. Dutoi,  
 R. G. Edgar,  P.-T. Fang,  S. Fatehi,  Q. Feng,  L. Fusti-Molnar,  
 A. Ghysels,  A. Golubeva-Zadorozhnaya,  J. Gomes,  A. Gunina,  
 M. W. D. Hanson-Heine,  P. H. P. Harbach,  A. W. Hauser,  E. G. Hohenstein,  
 Z. C. Holden,  K. Hui,  T.-C. Jagau,  H. Ji,  B. Kaduk,  K. Khistyaev,  
 Jaehoon Kim,  Jihan Kim,  R. A. King,  P. Klunzinger,  D. Kosenkov,  
 T. Kowalczyk,  C. M. Krauter,  A. Kunitsa,  K. U. Lao,  A. Laurent,  
 K. V. Lawler,  D. Lefrancois,  S. Lehtola,  S. V. Levchenko,  C. Y. Lin,  
 Y.-S. Lin,  F. Liu,  E. Livshits,  R. C. Lochan,  A. Luenser,  P. Manohar,  
 S. F. Manzer,  S.-P. Mao,  Y. Mao,  N. Mardirossian,  A. V. Marenich,  
 L. A. Martinez-Martinez,  S. A. Maurer,  N. J. Mayhall,  J.-M. Mewes,  
 A. F. Morrison,  K. Nanda,  C. M. Oana,  R. Olivares-Amaya,  D. P. O'Neill,  
 J. A. Parkhill,  T. M. Perrine,  R. Peverati,  P. A. Pieniazek,  F. Plasser,  
 A. Prociuk,  D. R. Rehn,  E. Rosta,  N. J. Russ,  N. Sergueev,  
 S. M. Sharada,  S. Sharma,  D. W. Small,  A. Sodt,  T. Stauch,  T. Stein,  
 D. Stuck,  Y.-C. Su,  A. J. W. Thom,  T. Tsuchimochi,  L. Vogt,  O. Vydrov,  
 T. Wang,  M. A. Watson,  J. Wenzel,  A. White,  C. F. Williams,  
 V. Vanovschi,  S. Yeganeh,  S. R. Yost,  Z.-Q. You,  I. Y. Zhang,  X. Zhang,  
 Y. Zhao,  B. R. Brooks,  G. K. L. Chan,  D. M. Chipman,  C. J. Cramer,  
 W. A. Goddard III,  M. S. Gordon,  W. J. Hehre,  A. Klamt,  
 H. F. Schaefer III,  M. W. Schmidt,  C. D. Sherrill,  D. G. Truhlar,  
 A. Warshel,  X. Xu,  A. Aspuru-Guzik,  R. Baer,  A. T. Bell,  N. A. Besley,  
 J.-D. Chai,  A. Dreuw,  B. D. Dunietz,  T. R. Furlani,  S. R. Gwaltney,  
 C.-P. Hsu,  Y. Jung,  J. Kong,  D. S. Lambrecht,  W. Liang,  C. Ochsenfeld,  
 V. A. Rassolov,  L. V. Slipchenko,  J. E. Subotnik,  T. Van Voorhis,  
 J. M. Herbert,  A. I. Krylov,  P. M. W. Gill,  M. Head-Gordon

 Contributors to earlier versions of Q-Chem not listed above: 
 R. D. Adamson,  J. Baker,  E. F. C. Byrd,  A. K. Chakraborty,  C.-L. Cheng,  
 H. Dachsel,  R. J. Doerksen,  G. Hawkins,  A. Heyden,  S. Hirata,  
 G. Kedziora,  F. J. Keil,  C. Kelley,  P. P. Korambath,  W. Kurlancheek,  
 A. M. Lee,  M. S. Lee,  D. Liotard,  I. Lotan,  P. E. Maslen,  N. Nair,  
 D. Neuhauser,  R. Olson,  B. Peters,  J. Ritchie,  N. E. Schultz,  
 N. Shenvi,  A. C. Simmonett,  K. S. Thanthiriwatte,  Q. Wu,  W. Zhang

 Please cite Q-Chem as follows:
 Y. Shao et al., Mol. Phys. 113, 184-215 (2015)
 DOI: 10.1080/00268976.2014.952696

 Q-Chem 4.4.1 for Intel X86 EM64T Linux

 Parts of Q-Chem use Armadillo 5.200.1 (Boston Tea Smuggler).
 http://arma.sourceforge.net/

 Q-Chem begins on Wed Sep  7 00:05:20 2016  

Host: nid01047
0

     Scratch files written to /dev/shm/eg_qchem/qchem28727.0//
 Parallel job on  16  processors

Checking the input file for inconsistencies... 	...done.

--------------------------------------------------------------
User input:
--------------------------------------------------------------
$molecule
 -1  2
 S           1.83794975       -1.27576249       -0.14871336
 C           3.23937819       -0.19806434       -0.14823333
 C           2.83626844        1.12431397       -0.14890172
 C           1.43724334        1.31134696       -0.14931220
 C           0.69606563        0.10654716       -0.14908151
 H           0.95807640        2.28459073       -0.14860036
 C          -0.69610330       -0.10652413       -0.14907621
 S          -1.82393219        1.18393764       -0.67575435
 C          -1.44713411       -1.24693613        0.22011236
 C          -3.23318838        0.15739217       -0.38311710
 C          -2.84255467       -1.08345800        0.08472743
 H          -3.55705895       -1.86666904        0.32727133
 H           4.24016475       -0.60708034       -0.14954918
 H           3.54430111        1.94981573       -0.14910914
 H          -4.22882531        0.53275648       -0.57463293
 H          -0.97746408       -2.15811976        0.57501989
$end


$rem
         jobtype = opt
        exchange = b3lyp
           basis = 6-31++g**
  max_scf_cycles = 100
      mem_static = 100
       mem_total = 1500
$end


$opt
CONSTRAINT
tors 4 5 7 9 -160.0
ENDCONSTRAINT
$end

--------------------------------------------------------------
 Atom   8: ( -1.8598650688,  1.2145868083, -0.2031369924)
         ->( -1.8598650029,  1.2145868107, -0.2031369335)
 Atom  10: ( -3.2410246875,  0.1211132916, -0.0543117686)
         ->( -3.2410246792,  0.1211133103, -0.0543120100)
 Atom  11: ( -2.8142969908, -1.1722628640,  0.1828884358)
         ->( -2.8142970580, -1.1722628023,  0.1828884970)
 Atom   9: ( -1.4127377202, -1.3245384196,  0.2514193322)
         ->( -1.4127377891, -1.3245384563,  0.2514193615)
 Atom   7: ( -0.6937404157, -0.1208620929,  0.0640875834)
         ->( -0.6937404246, -0.1208621757,  0.0640875418)
 Atom  16: ( -0.9163352976, -2.2720550821,  0.4319787645)
         ->( -0.9163354052, -2.2720551508,  0.4319787304)
 Atom  14: (  3.5070090998,  2.0015842894,  0.3059305991)
         ->(  3.5070089541,  2.0015844297,  0.3059303768)
 Atom  15: ( -4.2485384079,  0.5008498947, -0.1522188174)
         ->( -4.2485383889,  0.5008500185, -0.1522186781)
 ----------------------------------------------------------------
             Standard Nuclear Orientation (Angstroms)
    I     Atom           X                Y                Z
 ----------------------------------------------------------------
    1      S       1.8598650029    -1.2145868107    -0.2031369335
    2      C       3.2410246792    -0.1211133103    -0.0543120100
    3      C       2.8142970580     1.1722628023     0.1828884970
    4      C       1.4127377891     1.3245384563     0.2514193615
    5      C       0.6937404246     0.1208621757     0.0640875418
    6      H       0.9163354052     2.2720551508     0.4319787304
    7      C      -0.6937404246    -0.1208621757     0.0640875418
    8      S      -1.8598650029     1.2145868107    -0.2031369335
    9      C      -1.4127377891    -1.3245384563     0.2514193615
   10      C      -3.2410246792     0.1211133103    -0.0543120100
   11      C      -2.8142970580    -1.1722628023     0.1828884970
   12      H      -3.5070089541    -2.0015844297     0.3059303768
   13      H       4.2485383889    -0.5008500185    -0.1522186781
   14      H       3.5070089541     2.0015844297     0.3059303768
   15      H      -4.2485383889     0.5008500185    -0.1522186781
   16      H      -0.9163354052    -2.2720551508     0.4319787304
 ----------------------------------------------------------------
 Molecular Point Group                 C2    NOp =  2
 Largest Abelian Subgroup              C2    NOp =  2
 Nuclear Repulsion Energy =   623.5176709164 hartrees
 There are       44 alpha and       43 beta electrons
 Requested basis set is 6-31++G(d,p)
 There are 76 shells and 234 basis functions

 Total QAlloc Memory Limit   1500 MB
 Mega-Array Size        98 MB
 MEM_STATIC part       100 MB
 A cutoff of  1.0D-11 yielded   2491 shell pairs
 There are     24623 function pairs
 
 -------------------------------------------------------
 OpenMP Integral Computing Module                       
 Release: version 1.0, May 2013, Q-Chem Inc. Pittsburgh 
 -------------------------------------------------------
 Integral Job Info:
 Integral job number is                      11
 Integral operator is                         1
 short-range coefficients                     0
 long-range coefficients              100000000
 Omega coefficients                           0
 if combine SR and LR in K                    0
 Integral screening is                        0
 Integral computing path is                   2
 max size of driver memory is            800000
 size of driver memory is                593474
 size of scratch memory is             15166112
 max col of scratch BK array               1296
 max len of scratch array in speh3          155
 max len of scratch index in speh4           18
 max int batch size is                      520
 min int batch size is                       52
 fixed nKL is                                52
 max L of basis functions is                  2
 order of int derivative is                   0
 number of shells is                         76
 number of basis is                         234
 number of cartesian basis is               234
 number of contracted shell pairs          2491
 number of primitive shell pairs           8068
 maxK2 (contraction) of shell pair           36
 max number of K2 of shell pair               1
 max number of CS2 of shell pair            260
 max number of PS2 of shell pair           1548
 mem total for path MDJ                   51606
 -------------------------------------------------------
 Smallest overlap matrix eigenvalue = 8.15E-07

 Q-Chem warning in module /project/projectdirs/jcesr/qchem/qc44/cnl_qc441/compile/cori/qc_src/stvman/mkSTV.C, line 257:

 Overlap eigenvalue is smaller than square root of threshold

 Linear dependence detected in AO basis
 Number of orthogonalized atomic orbitals = 233
 Maximum deviation from orthogonality = 4.018E-11

 Scale SEOQF with 1.000000e-01/1.000000e-01/1.000000e-01

 Standard Electronic Orientation quadrupole field applied
 Nucleus-field energy     =     0.0000000222 hartrees
 Guess from superposition of atomic densities
 Warning:  Energy on first SCF cycle will be non-variational
 An unrestricted hybrid HF-DFT SCF calculation will be
 performed using Pulay DIIS extrapolation
 Exchange:     0.2000 Hartree-Fock + 0.0800 Slater + 0.7200 B88
 Correlation:  0.1900 VWN1RPA + 0.8100 LYP
 Using SG-1 standard quadrature grid
 SCF converges when DIIS error is below 1.0E-08
 Inaccurate integrated density:
   Number of electrons =    87
   Numerical integral  =    85.999569429841
   Relative error      =    -1.1499201956 %
 ---------------------------------------
  Cycle       Energy         DIIS Error
 ---------------------------------------
    1   -1106.9955696713      4.29E-02
    2   -1211.1558584304      1.87E+00
    3   -1289.3114045854      2.31E+00
    4   -1385.3964187788      2.62E+00
    5   -1425.8771102473      2.26E+00
    6   -1071.6957227222      5.26E-01
    7   -1017.4638892697      2.59E+00
    8   -1152.2741054712      1.32E-01
    9   -1238.7108753504      4.98E-01
   10   -1105.1466274255      8.02E-02
   11   -1118.9354430256      8.19E-02
   12   -1099.9524692467      1.52E-02
   13   -1104.6228444713      4.45E-03
   14   -1104.5025045566      6.12E-03
   15   -1104.8111460488      2.03E-03
   16   -1104.8413076909      6.42E-04
   17   -1104.8439250186      2.32E-04
   18   -1104.8442222782      1.65E-04
   19   -1104.8444532065      3.23E-05
   20   -1104.8444628733      8.04E-06
   21   -1104.8444651297      2.58E-06
   22   -1104.8444637335      1.78E-06
   23   -1104.8444675149      1.08E-06
   24   -1104.8444656543      2.88E-07
   25   -1104.8444659422      1.13E-07
   26   -1104.8444638731      1.28E-07
   27   -1104.8444653621      6.76E-08
   28   -1104.8444673948      6.81E-08
   29   -1104.8444664792      4.05E-08
   30   -1104.8444660672      7.20E-08
   31   -1104.8444661578      6.65E-08
   32   -1104.8444667253      8.03E-08
   33   -1104.8444667858      1.18E-07
   34   -1104.8444669462      8.23E-08
   35   -1104.8444671508      4.78E-08
   36   -1104.8444670726      6.97E-08
   37   -1104.8444669922      5.34E-08
   38   -1104.8444665486      6.27E-08
   39   -1104.8444662725      5.89E-08
   40   -1104.8444662053      2.40E-08
   41   -1104.8444659605      2.31E-08
   42   -1104.8444659204      3.25E-08
   43   -1104.8444659333      3.55E-08
   44   -1104.8444659647      3.45E-08
   45   -1104.8444660226      3.15E-08
   46   -1104.8444659574      3.71E-08
   47   -1104.8444655821      5.44E-08
   48   -1104.8444657114      5.99E-08
   49   -1104.8444657550      6.38E-08
   50   -1104.8444658147      6.52E-08
   51   -1104.8444664165      4.00E-08
   52   -1104.8444666399      3.50E-08
   53   -1104.8444666065      3.94E-08
   54   -1104.8444659977      4.17E-08
   55   -1104.8444654471      6.20E-08
   56   -1104.8444660716      4.85E-08
   57   -1104.8444659731      5.60E-08
   58   -1104.8444651025      5.06E-08
   59   -1104.8444656535      5.00E-08
   60   -1104.8444648495      6.05E-08
   61   -1104.8444643463      3.78E-08
   62   -1104.8444646493      4.14E-08
   63   -1104.8444647682      5.53E-08
   64   -1104.8444647639      3.43E-08
   65   -1104.8444654906      2.68E-08
   66   -1104.8444655489      2.61E-08
   67   -1104.8444652862      2.32E-08
   68   -1104.8444655908      2.26E-08
   69   -1104.8444660017      4.07E-08
   70   -1104.8444656742      4.91E-08
   71   -1104.8444655634      4.60E-08
   72   -1104.8444663552      3.43E-08
   73   -1104.8444660362      2.83E-08
   74   -1104.8444653315      5.54E-08
   75   -1104.8444652347      4.61E-08
   76   -1104.8444651393      1.86E-08
   77   -1104.8444654122      2.89E-08
   78   -1104.8444655462      1.41E-08
   79   -1104.8444652378      1.85E-08
   80   -1104.8444654051      2.91E-08
   81   -1104.8444655679      2.59E-08
   82   -1104.8444652911      4.78E-08
   83   -1104.8444659072      1.74E-08
   84   -1104.8444658466      2.24E-08
   85   -1104.8444660317      1.52E-08
   86   -1104.8444660875      3.12E-08
   87   -1104.8444661776      4.52E-08
   88   -1104.8444663545      4.98E-08
   89   -1104.8444666086      2.80E-08
   90   -1104.8444662376      5.32E-08
   91   -1104.8444665052      6.07E-08
   92   -1104.8444666133      2.14E-08
   93   -1104.8444662759      1.97E-08
   94   -1104.8444672540      2.44E-08
   95   -1104.8444662927      1.73E-08
   96   -1104.8444661962      1.66E-08
   97   -1104.8444659038      9.45E-09 Convergence criterion met
 ---------------------------------------
 <S^2> = 0.7630
 SCF time:  CPU 45.26 s  wall 38.95 s
 SCF   energy in the final basis set = -1104.8444659038
 Total energy in the final basis set = -1104.8444659038
 
 --------------------------------------------------------------
             Orbital Energies (a.u.) and Symmetries
 --------------------------------------------------------------
 
 Alpha MOs, Unrestricted
 -- Occupied --                  
-88.751 -88.751 -10.064 -10.064 -10.057 -10.057 -10.049 -10.049
  1 A     1 B     2 A     2 B     3 B     3 A     4 A     4 B                  
-10.033 -10.033  -7.810  -7.810  -5.774  -5.774  -5.771  -5.771
  5 B     5 A     6 A     6 B     7 A     7 B     8 B     8 A                  
 -5.767  -5.767  -0.724  -0.702  -0.606  -0.582  -0.570  -0.536
  9 B     9 A    10 A    10 B    11 A    11 B    12 A    12 B                  
 -0.447  -0.417  -0.390  -0.370  -0.363  -0.316  -0.261  -0.256
 13 A    13 B    14 A    14 B    15 A    15 B    16 B    16 A                  
 -0.243  -0.241  -0.240  -0.212  -0.209  -0.194  -0.177  -0.125
 17 A    17 B    18 A    19 A    18 B    19 B    20 A    21 A                  
 -0.109  -0.103  -0.052   0.049
 20 B    22 A    21 B    23 A                                                  
 -- Virtual --                   
  0.094   0.096   0.111   0.113   0.124   0.135   0.140   0.148
 24 A    22 B    23 B    25 A    26 A    24 B    25 B    26 B                  
  0.159   0.163   0.170   0.173   0.177   0.182   0.185   0.191
 27 A    28 A    29 A    27 B    28 B    30 A    29 B    31 A                  
  0.199   0.205   0.207   0.211   0.219   0.221   0.227   0.230
 30 B    32 A    31 B    33 A    34 A    32 B    35 A    33 B                  
  0.237   0.238   0.243   0.244   0.251   0.253   0.262   0.269
 36 A    34 B    37 A    35 B    36 B    37 B    38 A    39 A                  
  0.272   0.283   0.283   0.288   0.298   0.300   0.308   0.314
 38 B    40 A    39 B    41 A    40 B    42 A    43 A    41 B                  
  0.325   0.331   0.332   0.334   0.335   0.343   0.354   0.375
 42 B    43 B    44 A    45 A    44 B    46 A    45 B    46 B                  
  0.380   0.389   0.393   0.402   0.411   0.422   0.433   0.453
 47 A    47 B    48 A    49 A    48 B    49 B    50 A    50 B                  
  0.454   0.479   0.483   0.483   0.508   0.543   0.556   0.597
 51 A    52 A    51 B    53 A    52 B    54 A    53 B    54 B                  
  0.607   0.662   0.664   0.686   0.702   0.709   0.728   0.758
 55 A    55 B    56 A    57 A    56 B    57 B    58 A    59 A                  
  0.769   0.780   0.799   0.815   0.815   0.822   0.826   0.845
 58 B    60 A    59 B    60 B    61 A    61 B    62 A    63 A                  
  0.867   0.876   0.885   0.897   0.903   0.922   0.931   0.976
 62 B    64 A    63 B    64 B    65 A    66 A    65 B    66 B                  
  0.982   0.983   1.008   1.014   1.068   1.086   1.102   1.104
 67 A    67 B    68 A    69 A    68 B    70 A    69 B    71 A                  
  1.107   1.112   1.117   1.129   1.135   1.140   1.168   1.179
 72 A    70 B    71 B    72 B    73 A    73 B    74 B    74 A                  
  1.191   1.210   1.247   1.254   1.264   1.290   1.306   1.327
 75 A    76 A    77 A    75 B    76 B    77 B    78 A    78 B                  
  1.330   1.357   1.406   1.408   1.476   1.503   1.506   1.509
 79 A    80 A    79 B    81 A    80 B    82 A    81 B    83 A                  
  1.512   1.530   1.629   1.629   1.666   1.699   1.748   1.835
 82 B    84 A    83 B    85 A    84 B    85 B    86 A    87 A                  
  1.842   1.886   1.986   1.999   2.023   2.048   2.058   2.076
 86 B    88 A    89 A    87 B    90 A    88 B    91 A    89 B                  
  2.106   2.115   2.163   2.195   2.207   2.227   2.263   2.300
 92 A    90 B    93 A    91 B    94 A    92 B    93 B    95 A                  
  2.317   2.320   2.366   2.388   2.424   2.497   2.513   2.516
 96 A    94 B    97 A    95 B    96 B    98 A    97 B    99 A                  
  2.561   2.604   2.615   2.619   2.640   2.670   2.680   2.684
 98 B   100 A   101 A    99 B   100 B   102 A   103 A   101 B                  
  2.720   2.739   2.765   2.823   2.841   2.872   2.899   3.018
102 B   104 A   103 B   105 A   106 A   104 B   105 B   107 A                  
  3.026   3.073   3.114   3.295   3.362   3.415   3.422   3.555
106 B   108 A   107 B   108 B   109 A   109 B   110 A   111 A                  
  3.580   3.866   3.889   4.131   4.139   4.411   4.456   4.462
110 B   112 A   111 B   112 B   113 A   114 A   113 B   115 A                  
  4.475   4.579   4.680   4.814   4.871
114 B   116 A   115 B   117 A   116 B                                          
 
 Beta MOs, Unrestricted
 -- Occupied --                  
-88.750 -88.750 -10.063 -10.062 -10.053 -10.053 -10.050 -10.050
  1 A     1 B     2 A     2 B     3 B     3 A     4 A     4 B                  
-10.031 -10.031  -7.809  -7.809  -5.774  -5.774  -5.770  -5.770
  5 B     5 A     6 A     6 B     7 A     7 B     8 B     8 A                  
 -5.765  -5.765  -0.720  -0.699  -0.601  -0.579  -0.567  -0.532
  9 B     9 A    10 A    10 B    11 A    11 B    12 A    12 B                  
 -0.440  -0.414  -0.387  -0.367  -0.362  -0.314  -0.259  -0.254
 13 A    13 B    14 A    14 B    15 A    15 B    16 B    16 A                  
 -0.240  -0.238  -0.231  -0.210  -0.200  -0.191  -0.175  -0.110
 17 B    17 A    18 A    19 A    18 B    19 B    20 A    21 A                  
 -0.100  -0.093  -0.033
 20 B    22 A    21 B                                                          
 -- Virtual --                   
  0.094   0.096   0.102   0.110   0.113   0.124   0.135   0.145
 23 A    22 B    24 A    23 B    25 A    26 A    24 B    25 B                  
  0.155   0.158   0.164   0.171   0.174   0.177   0.186   0.186
 26 B    27 A    28 A    29 A    27 B    28 B    29 B    30 A                  
  0.193   0.200   0.205   0.211   0.212   0.221   0.222   0.228
 31 A    30 B    32 A    31 B    33 A    34 A    32 B    35 A                  
  0.230   0.238   0.239   0.243   0.245   0.253   0.256   0.262
 33 B    36 A    34 B    37 A    35 B    36 B    37 B    38 A                  
  0.270   0.273   0.283   0.285   0.289   0.302   0.302   0.308
 39 A    38 B    40 A    39 B    41 A    42 A    40 B    43 A                  
  0.317   0.326   0.331   0.332   0.335   0.336   0.344   0.354
 41 B    42 B    43 B    44 A    44 B    45 A    46 A    45 B                  
  0.376   0.380   0.389   0.394   0.404   0.412   0.426   0.434
 46 B    47 A    47 B    48 A    49 A    48 B    49 B    50 A                  
  0.455   0.455   0.480   0.484   0.485   0.508   0.545   0.559
 51 A    50 B    52 A    51 B    53 A    52 B    54 A    53 B                  
  0.598   0.608   0.665   0.666   0.688   0.704   0.711   0.730
 54 B    55 A    55 B    56 A    57 A    56 B    57 B    58 A                  
  0.760   0.771   0.784   0.808   0.821   0.822   0.825   0.833
 59 A    58 B    60 A    59 B    61 A    60 B    61 B    62 A                  
  0.849   0.871   0.876   0.887   0.901   0.911   0.924   0.933
 63 A    62 B    64 A    63 B    64 B    65 A    66 A    65 B                  
  0.978   0.988   0.990   1.012   1.018   1.070   1.088   1.104
 66 B    67 A    67 B    68 A    69 A    68 B    70 A    71 A                  
  1.105   1.110   1.113   1.119   1.130   1.136   1.142   1.170
 69 B    72 A    70 B    71 B    72 B    73 A    73 B    74 B                  
  1.181   1.194   1.213   1.251   1.256   1.267   1.292   1.309
 74 A    75 A    76 A    77 A    75 B    76 B    77 B    78 A                  
  1.329   1.334   1.359   1.409   1.413   1.479   1.505   1.509
 78 B    79 A    80 A    79 B    81 A    80 B    82 A    81 B                  
  1.513   1.517   1.535   1.631   1.632   1.671   1.702   1.751
 83 A    82 B    84 A    85 A    83 B    84 B    85 B    86 A                  
  1.845   1.853   1.894   1.990   2.002   2.028   2.049   2.060
 87 A    86 B    88 A    89 A    87 B    90 A    88 B    91 A                  
  2.080   2.107   2.119   2.167   2.196   2.209   2.234   2.268
 89 B    92 A    90 B    93 A    91 B    94 A    92 B    93 B                  
  2.309   2.322   2.325   2.370   2.396   2.429   2.502   2.514
 95 A    96 A    94 B    97 A    95 B    96 B    98 A    97 B                  
  2.518   2.563   2.609   2.616   2.623   2.643   2.673   2.682
 99 A    98 B   100 A   101 A    99 B   100 B   102 A   103 A                  
  2.686   2.725   2.742   2.768   2.824   2.843   2.876   2.901
101 B   102 B   104 A   103 B   105 A   106 A   104 B   105 B                  
  3.020   3.030   3.074   3.115   3.296   3.363   3.415   3.422
107 A   106 B   108 A   107 B   108 B   109 A   109 B   110 A                  
  3.556   3.581   3.867   3.890   4.132   4.140   4.416   4.460
111 A   110 B   112 A   111 B   112 B   113 A   114 A   113 B                  
  4.464   4.478   4.585   4.685   4.816   4.874
115 A   114 B   116 A   115 B   117 A   116 B                                  
 --------------------------------------------------------------
 
          Ground-State Mulliken Net Atomic Charges

     Atom                 Charge (a.u.)    Spin (a.u.)
  --------------------------------------------------------
      1 S                    -0.295036       0.109358
      2 C                    -0.095045       0.239736
      3 C                    -0.309947      -0.076666
      4 C                     0.145976       0.249236
      5 C                    -0.255891      -0.005142
      6 H                     0.088539      -0.006176
      7 C                    -0.255891      -0.005142
      8 S                    -0.295036       0.109358
      9 C                     0.145976       0.249236
     10 C                    -0.095045       0.239736
     11 C                    -0.309947      -0.076666
     12 H                     0.073676       0.003909
     13 H                     0.147727      -0.014255
     14 H                     0.073676       0.003909
     15 H                     0.147727      -0.014255
     16 H                     0.088539      -0.006176
  --------------------------------------------------------
  Sum of atomic charges =    -1.000000
  Sum of spin   charges =     1.000000

 -----------------------------------------------------------------
                    Cartesian Multipole Moments
 -----------------------------------------------------------------
    Charge (ESU x 10^10)
                -4.8032
    Dipole Moment (Debye)
         X      -0.0000      Y      -0.0000      Z       0.0299
       Tot       0.0299
    Quadrupole Moments (Debye-Ang)
        XX     -99.6066     XY       0.9218     YY     -83.9050
        XZ      -0.0000     YZ       0.0000     ZZ     -87.1868
    Octopole Moments (Debye-Ang^2)
       XXX      -0.0000    XXY      -0.0000    XYY      -0.0000
       YYY      -0.0000    XXZ      -2.6810    XYZ       2.6048
       YYZ       1.2121    XZZ       0.0000    YZZ       0.0000
       ZZZ      -2.8124
    Hexadecapole Moments (Debye-Ang^3)
      XXXX   -2494.5836   XXXY     -33.0442   XXYY    -518.8009
      XYYY       7.1090   YYYY    -681.8907   XXXZ      -0.0000
      XXYZ       0.0000   XYYZ       0.0000   YYYZ       0.0000
      XXZZ    -493.8453   XYZZ      -8.9614   YYZZ    -156.3949
      XZZZ      -0.0000   YZZZ       0.0000   ZZZZ    -161.5830
 -----------------------------------------------------------------
 Calculating analytic gradient of the SCF energy
 Gradient of SCF Energy
            1           2           3           4           5           6
    1  -0.0004831   0.0000139   0.0000577   0.0001013  -0.0012660   0.0002946
    2   0.0004557   0.0006434  -0.0007125   0.0000846  -0.0007628   0.0002282
    3  -0.0010021  -0.0004532   0.0020014   0.0034273  -0.0016972  -0.0010529
            7           8           9          10          11          12
    1   0.0012660   0.0004831  -0.0001013  -0.0000139  -0.0000577  -0.0000126
    2   0.0007628  -0.0004557  -0.0000846  -0.0006434   0.0007125  -0.0000005
    3  -0.0016972  -0.0010021   0.0034273  -0.0004532   0.0020014  -0.0001106
           13          14          15          16
    1  -0.0000637   0.0000126   0.0000637  -0.0002946
    2   0.0001000   0.0000005  -0.0001000  -0.0002282
    3  -0.0011126  -0.0001106  -0.0011126  -0.0010529
 Max gradient component =       3.427E-03
 RMS gradient           =       1.039E-03
 Gradient time:  CPU 1.76 s  wall 1.76 s
 Geometry Optimization Parameters
   NAtoms,    NIC,     NZ,  NCons,   NDum,   NFix, NCnnct, MaxDiis
       16     111       0       1       0       0       0       0


** CONSTRAINED OPTIMIZATION IN DELOCALIZED INTERNAL COORDINATES **
   Searching for a Minimum

   Optimization Cycle:   1

                       Coordinates (Angstroms)
     ATOM                X               Y               Z
      1  S         1.8598650029   -1.2145868107   -0.2031369335
      2  C         3.2410246792   -0.1211133103   -0.0543120100
      3  C         2.8142970580    1.1722628023    0.1828884970
      4  C         1.4127377891    1.3245384563    0.2514193615
      5  C         0.6937404246    0.1208621757    0.0640875418
      6  H         0.9163354052    2.2720551508    0.4319787304
      7  C        -0.6937404246   -0.1208621757    0.0640875418
      8  S        -1.8598650029    1.2145868107   -0.2031369335
      9  C        -1.4127377891   -1.3245384563    0.2514193615
     10  C        -3.2410246792    0.1211133103   -0.0543120100
     11  C        -2.8142970580   -1.1722628023    0.1828884970
     12  H        -3.5070089541   -2.0015844297    0.3059303768
     13  H         4.2485383889   -0.5008500185   -0.1522186781
     14  H         3.5070089541    2.0015844297    0.3059303768
     15  H        -4.2485383889    0.5008500185   -0.1522186781
     16  H        -0.9163354052   -2.2720551508    0.4319787304
   Point Group: c2    Number of degrees of freedom:    22


   Energy is  -1104.844465904

              Constraints and their Current Values
                                        Value     Constraint
   Dihedral:        4   5   7   9     -160.000     -160.000

 Attempting to Generate Delocalized Internal Coordinates

 21 Hessian modes will be used to form the next step
  Hessian Eigenvalues:
     0.045000    0.045000    0.045000    0.045000    0.045000    0.045000
     0.160000    0.160000    0.160000    0.221184    0.237470    0.250000
     0.264210    0.283931    0.350974    0.354198    0.358566    0.414224
     0.425056    0.442595    0.471396

 Minimum Search - Taking Simple RFO Step
 Searching for Lamda that Minimizes Along All modes
 Value Taken    Lamda =  -0.00057709
 Step Taken.  Stepsize is  0.111488

                             Maximum     Tolerance    Cnvgd?
         Gradient           0.003663      0.000300      NO
         Displacement       0.072674      0.001200      NO
         Energy change     *********      0.000001      NO


 New Cartesian Coordinates Obtained by Inverse Iteration

 Displacement from previous Coordinates is:  0.268099
 ----------------------------------------------------------------
             Standard Nuclear Orientation (Angstroms)
    I     Atom           X                Y                Z
 ----------------------------------------------------------------
    1      S       1.8649579644    -1.2188192695    -0.1907069446
    2      C       3.2436237064    -0.1250713069    -0.0244117400
    3      C       2.8129715464     1.1741632603     0.1727978324
    4      C       1.4104385252     1.3263801637     0.2202088535
    5      C       0.6943220542     0.1220818439     0.0329333904
    6      H       0.9096794166     2.2732208534     0.3930628746
    7      C      -0.6943220542    -0.1220818439     0.0329333904
    8      S      -1.8649579644     1.2188192695    -0.1907069446
    9      C      -1.4104385252    -1.3263801637     0.2202088535
   10      C      -3.2436237064     0.1250713069    -0.0244117400
   11      C      -2.8129715464    -1.1741632603     0.1727978324
   12      H      -3.5035982625    -2.0041711604     0.3027392000
   13      H       4.2528781420    -0.5087068103    -0.0799865804
   14      H       3.5035982625     2.0041711604     0.3027392000
   15      H      -4.2528781420     0.5087068103    -0.0799865804
   16      H      -0.9096794166    -2.2732208534     0.3930628746
 ----------------------------------------------------------------
 Molecular Point Group                 C2    NOp =  2
 Largest Abelian Subgroup              C2    NOp =  2
 Nuclear Repulsion Energy =   623.3654577424 hartrees
 There are       44 alpha and       43 beta electrons
 Applying Cartesian multipole field
    Component          Value
    ---------          -----
     (2,0,0)        1.00000E-11
     (0,2,0)        2.00000E-11
     (0,0,2)       -3.00000E-11
 Nucleus-field energy     =     0.0000000223 hartrees
 Requested basis set is 6-31++G(d,p)
 There are 76 shells and 234 basis functions
 A cutoff of  1.0D-11 yielded   2491 shell pairs
 There are     24623 function pairs
 Smallest overlap matrix eigenvalue = 8.02E-07

 Q-Chem warning in module /project/projectdirs/jcesr/qchem/qc44/cnl_qc441/compile/cori/qc_src/stvman/mkSTV.C, line 257:

 Overlap eigenvalue is smaller than square root of threshold

 Linear dependence detected in AO basis
 Number of orthogonalized atomic orbitals = 233
 Maximum deviation from orthogonality = 5.743E-11
 Guess MOs from SCF MO coefficient file
 Reading MOs from coefficient file
 Reading MOs from coefficient file
 An unrestricted hybrid HF-DFT SCF calculation will be
 performed using Pulay DIIS extrapolation
 Exchange:     0.2000 Hartree-Fock + 0.0800 Slater + 0.7200 B88
 Correlation:  0.1900 VWN1RPA + 0.8100 LYP
 Using SG-1 standard quadrature grid
 SCF converges when DIIS error is below 1.0E-08
 Geometry optimization detected.  Setting ReadMinima to 0
 Setting SaveMinima to 0
 ---------------------------------------
  Cycle       Energy         DIIS Error
 ---------------------------------------
    1   -1104.8416975343      9.70E-04
    2   -1104.8448122112      8.42E-05
    3   -1104.8445796596      1.94E-04
    4   -1104.8448914720      1.06E-05
    5   -1104.8448921791      7.60E-06
    6   -1104.8448926343      2.10E-06
    7   -1104.8448926748      5.45E-07
    8   -1104.8448926791      1.37E-07
    9   -1104.8448926807      7.69E-08
   10   -1104.8448926818      2.57E-08
   11   -1104.8448926818      1.04E-08
   12   -1104.8448926827      6.99E-09 Convergence criterion met
 ---------------------------------------
 <S^2> = 0.7630
 SCF time:  CPU 7.64 s  wall 6.98 s
 SCF   energy in the final basis set = -1104.8448926827
 Total energy in the final basis set = -1104.8448926827
 
 --------------------------------------------------------------
             Orbital Energies (a.u.) and Symmetries
 --------------------------------------------------------------
 
 Alpha MOs, Unrestricted
 -- Occupied --                  
-88.751 -88.751 -10.064 -10.064 -10.057 -10.057 -10.049 -10.049
  1 A     1 B     2 A     2 B     3 B     3 A     4 A     4 B                  
-10.033 -10.033  -7.810  -7.810  -5.774  -5.774  -5.771  -5.771
  5 B     5 A     6 A     6 B     7 A     7 B     8 B     8 A                  
 -5.767  -5.767  -0.724  -0.702  -0.606  -0.582  -0.570  -0.536
  9 B     9 A    10 A    10 B    11 A    11 B    12 A    12 B                  
 -0.447  -0.418  -0.390  -0.370  -0.363  -0.316  -0.261  -0.256
 13 A    13 B    14 A    14 B    15 A    15 B    16 B    16 A                  
 -0.242  -0.241  -0.240  -0.212  -0.209  -0.194  -0.177  -0.125
 17 A    17 B    18 A    19 A    18 B    19 B    20 A    21 A                  
 -0.109  -0.103  -0.052   0.048
 20 B    22 A    21 B    23 A                                                  
 -- Virtual --                   
  0.094   0.096   0.111   0.113   0.124   0.135   0.141   0.147
 24 A    22 B    23 B    25 A    26 A    24 B    25 B    26 B                  
  0.158   0.163   0.170   0.174   0.177   0.182   0.186   0.191
 27 A    28 A    29 A    27 B    28 B    30 A    29 B    31 A                  
  0.199   0.205   0.208   0.211   0.219   0.221   0.228   0.230
 30 B    32 A    31 B    33 A    34 A    32 B    35 A    33 B                  
  0.237   0.237   0.242   0.244   0.250   0.253   0.262   0.268
 34 B    36 A    37 A    35 B    36 B    37 B    38 A    39 A                  
  0.271   0.283   0.284   0.289   0.298   0.300   0.307   0.316
 38 B    40 A    39 B    41 A    40 B    42 A    43 A    41 B                  
  0.323   0.331   0.332   0.334   0.336   0.342   0.353   0.375
 42 B    44 A    43 B    45 A    44 B    46 A    45 B    46 B                  
  0.381   0.388   0.396   0.403   0.411   0.423   0.430   0.453
 47 A    47 B    48 A    49 A    48 B    49 B    50 A    50 B                  
  0.453   0.480   0.483   0.484   0.507   0.543   0.556   0.597
 51 A    52 A    51 B    53 A    52 B    54 A    53 B    54 B                  
  0.607   0.661   0.664   0.686   0.703   0.709   0.729   0.757
 55 A    55 B    56 A    57 A    56 B    57 B    58 A    59 A                  
  0.770   0.782   0.801   0.811   0.816   0.822   0.826   0.847
 58 B    60 A    59 B    60 B    61 A    61 B    62 A    63 A                  
  0.866   0.876   0.885   0.896   0.903   0.923   0.931   0.977
 62 B    64 A    63 B    64 B    65 A    66 A    65 B    66 B                  
  0.982   0.982   1.009   1.012   1.068   1.086   1.102   1.103
 67 A    67 B    68 A    69 A    68 B    70 A    69 B    71 A                  
  1.107   1.111   1.118   1.129   1.137   1.140   1.169   1.179
 72 A    70 B    71 B    72 B    73 A    73 B    74 B    74 A                  
  1.190   1.210   1.247   1.254   1.264   1.290   1.305   1.327
 75 A    76 A    77 A    75 B    76 B    77 B    78 A    79 A                  
  1.328   1.360   1.405   1.409   1.475   1.498   1.507   1.512
 78 B    80 A    79 B    81 A    80 B    82 A    81 B    82 B                  
  1.513   1.531   1.631   1.633   1.663   1.696   1.751   1.834
 83 A    84 A    83 B    85 A    84 B    85 B    86 A    87 A                  
  1.842   1.883   1.985   2.002   2.020   2.048   2.057   2.077
 86 B    88 A    89 A    87 B    90 A    88 B    91 A    89 B                  
  2.105   2.113   2.162   2.193   2.208   2.227   2.264   2.301
 92 A    90 B    93 A    91 B    94 A    92 B    93 B    95 A                  
  2.315   2.321   2.365   2.388   2.422   2.496   2.513   2.516
 96 A    94 B    97 A    95 B    96 B    98 A    97 B    99 A                  
  2.562   2.604   2.614   2.614   2.642   2.668   2.681   2.687
 98 B   100 A   101 A    99 B   100 B   102 A   103 A   101 B                  
  2.718   2.739   2.766   2.823   2.839   2.873   2.898   3.017
102 B   104 A   103 B   105 A   106 A   104 B   105 B   107 A                  
  3.026   3.072   3.114   3.295   3.361   3.414   3.421   3.554
106 B   108 A   107 B   108 B   109 A   109 B   110 A   111 A                  
  3.579   3.866   3.889   4.131   4.139   4.410   4.456   4.463
110 B   112 A   111 B   112 B   113 A   114 A   113 B   115 A                  
  4.476   4.578   4.680   4.814   4.870
114 B   116 A   115 B   117 A   116 B                                          
 
 Beta MOs, Unrestricted
 -- Occupied --                  
-88.750 -88.750 -10.063 -10.062 -10.054 -10.054 -10.050 -10.050
  1 A     1 B     2 A     2 B     3 B     3 A     4 A     4 B                  
-10.031 -10.031  -7.809  -7.809  -5.774  -5.774  -5.771  -5.771
  5 B     5 A     6 A     6 B     7 A     7 B     8 B     8 A                  
 -5.765  -5.765  -0.720  -0.699  -0.601  -0.579  -0.567  -0.532
  9 B     9 A    10 A    10 B    11 A    11 B    12 A    12 B                  
 -0.440  -0.415  -0.387  -0.367  -0.362  -0.314  -0.259  -0.254
 13 A    13 B    14 A    14 B    15 A    15 B    16 B    16 A                  
 -0.240  -0.238  -0.231  -0.210  -0.200  -0.192  -0.175  -0.110
 17 B    17 A    18 A    19 A    18 B    19 B    20 A    21 A                  
 -0.100  -0.093  -0.033
 20 B    22 A    21 B                                                          
 -- Virtual --                   
  0.094   0.096   0.102   0.110   0.113   0.124   0.135   0.146
 23 A    22 B    24 A    23 B    25 A    26 A    24 B    25 B                  
  0.155   0.158   0.164   0.171   0.174   0.178   0.186   0.187
 26 B    27 A    28 A    29 A    27 B    28 B    29 B    30 A                  
  0.193   0.199   0.205   0.212   0.212   0.221   0.222   0.229
 31 A    30 B    32 A    33 A    31 B    34 A    32 B    35 A                  
  0.230   0.238   0.238   0.243   0.245   0.253   0.256   0.263
 33 B    34 B    36 A    37 A    35 B    36 B    37 B    38 A                  
  0.269   0.272   0.283   0.286   0.290   0.301   0.302   0.308
 39 A    38 B    40 A    39 B    41 A    42 A    40 B    43 A                  
  0.319   0.324   0.331   0.332   0.335   0.336   0.343   0.353
 41 B    42 B    44 A    43 B    45 A    44 B    46 A    45 B                  
  0.376   0.380   0.388   0.397   0.404   0.412   0.426   0.431
 46 B    47 A    47 B    48 A    49 A    48 B    49 B    50 A                  
  0.454   0.455   0.481   0.484   0.485   0.508   0.544   0.559
 51 A    50 B    52 A    51 B    53 A    52 B    54 A    53 B                  
  0.598   0.609   0.664   0.667   0.688   0.705   0.711   0.731
 54 B    55 A    55 B    56 A    57 A    56 B    57 B    58 A                  
  0.758   0.772   0.787   0.809   0.818   0.821   0.826   0.833
 59 A    58 B    60 A    59 B    60 B    61 A    61 B    62 A                  
  0.850   0.871   0.877   0.887   0.901   0.911   0.925   0.933
 63 A    62 B    64 A    63 B    64 B    65 A    66 A    65 B                  
  0.979   0.988   0.989   1.013   1.016   1.069   1.088   1.103
 66 B    67 A    67 B    68 A    69 A    68 B    70 A    71 A                  
  1.105   1.109   1.113   1.121   1.130   1.139   1.141   1.171
 69 B    72 A    70 B    71 B    72 B    73 A    73 B    74 B                  
  1.180   1.193   1.212   1.250   1.256   1.267   1.292   1.308
 74 A    75 A    76 A    77 A    75 B    76 B    77 B    78 A                  
  1.330   1.331   1.362   1.407   1.415   1.478   1.500   1.510
 78 B    79 A    80 A    79 B    81 A    80 B    82 A    81 B                  
  1.518   1.518   1.536   1.633   1.635   1.669   1.699   1.754
 83 A    82 B    84 A    83 B    85 A    84 B    85 B    86 A                  
  1.843   1.853   1.891   1.989   2.004   2.026   2.049   2.059
 87 A    86 B    88 A    89 A    87 B    90 A    88 B    91 A                  
  2.081   2.106   2.117   2.166   2.194   2.210   2.234   2.270
 89 B    92 A    90 B    93 A    91 B    94 A    92 B    93 B                  
  2.310   2.321   2.326   2.369   2.396   2.427   2.501   2.515
 95 A    96 A    94 B    97 A    95 B    96 B    98 A    97 B                  
  2.518   2.564   2.610   2.615   2.619   2.644   2.671   2.683
 99 A    98 B   100 A   101 A    99 B   100 B   102 A   103 A                  
  2.689   2.723   2.742   2.769   2.825   2.842   2.877   2.900
101 B   102 B   104 A   103 B   105 A   106 A   104 B   105 B                  
  3.019   3.029   3.074   3.116   3.296   3.362   3.415   3.421
107 A   106 B   108 A   107 B   108 B   109 A   109 B   110 A                  
  3.556   3.581   3.867   3.890   4.133   4.141   4.415   4.460
111 A   110 B   112 A   111 B   112 B   113 A   114 A   113 B                  
  4.464   4.478   4.583   4.686   4.817   4.873
115 A   114 B   116 A   115 B   117 A   116 B                                  
 --------------------------------------------------------------
 
          Ground-State Mulliken Net Atomic Charges

     Atom                 Charge (a.u.)    Spin (a.u.)
  --------------------------------------------------------
      1 S                    -0.294531       0.107338
      2 C                    -0.100618       0.240134
      3 C                    -0.312622      -0.075389
      4 C                     0.153943       0.251022
      5 C                    -0.255997      -0.006606
      6 H                     0.088696      -0.006410
      7 C                    -0.255997      -0.006606
      8 S                    -0.294531       0.107338
      9 C                     0.153943       0.251022
     10 C                    -0.100618       0.240134
     11 C                    -0.312622      -0.075389
     12 H                     0.073887       0.003982
     13 H                     0.147242      -0.014072
     14 H                     0.073887       0.003982
     15 H                     0.147242      -0.014072
     16 H                     0.088696      -0.006410
  --------------------------------------------------------
  Sum of atomic charges =    -1.000000
  Sum of spin   charges =     1.000000

 -----------------------------------------------------------------
                    Cartesian Multipole Moments
 -----------------------------------------------------------------
    Charge (ESU x 10^10)
                -4.8032
    Dipole Moment (Debye)
         X      -0.0000      Y      -0.0000      Z       0.1266
       Tot       0.1266
    Quadrupole Moments (Debye-Ang)
        XX     -99.6238     XY       0.8880     YY     -83.9096
        XZ      -0.0000     YZ       0.0000     ZZ     -87.1967
    Octopole Moments (Debye-Ang^2)
       XXX      -0.0000    XXY      -0.0000    XYY      -0.0000
       YYY      -0.0000    XXZ      -0.4608    XYZ       2.3091
       YYZ       1.4614    XZZ      -0.0000    YZZ       0.0000
       ZZZ      -2.3791
    Hexadecapole Moments (Debye-Ang^3)
      XXXX   -2497.5283   XXXY     -32.8515   XXYY    -519.3781
      XYYY       8.4510   YYYY    -684.2119   XXXZ      -0.0000
      XXYZ       0.0000   XYYZ      -0.0000   YYYZ       0.0000
      XXZZ    -494.6750   XYZZ      -7.9118   YYZZ    -156.6935
      XZZZ      -0.0000   YZZZ       0.0000   ZZZZ    -157.9525
 -----------------------------------------------------------------
 Calculating analytic gradient of the SCF energy
 Gradient of SCF Energy
            1           2           3           4           5           6
    1  -0.0001071   0.0001668  -0.0000404   0.0000112   0.0001283   0.0000452
    2   0.0002933  -0.0000032  -0.0001051  -0.0005763   0.0004428   0.0001174
    3  -0.0010212   0.0004931  -0.0001418   0.0041555  -0.0024064  -0.0005461
            7           8           9          10          11          12
    1  -0.0001283   0.0001071  -0.0000112  -0.0001668   0.0000404  -0.0000140
    2  -0.0004428  -0.0002933   0.0005763   0.0000032   0.0001051   0.0000032
    3  -0.0024064  -0.0010212   0.0041555   0.0004931  -0.0001418   0.0000050
           13          14          15          16
    1  -0.0000183   0.0000140   0.0000183  -0.0000452
    2   0.0000408  -0.0000032  -0.0000408  -0.0001174
    3  -0.0005381   0.0000050  -0.0005381  -0.0005461
 Max gradient component =       4.156E-03
 RMS gradient           =       1.034E-03
 Gradient time:  CPU 1.82 s  wall 1.75 s
 Geometry Optimization Parameters
   NAtoms,    NIC,     NZ,  NCons,   NDum,   NFix, NCnnct, MaxDiis
       16     111       0       1       0       0       0       0

 Cartesian Hessian Update
 Hessian Updated using BFGS Update


** CONSTRAINED OPTIMIZATION IN DELOCALIZED INTERNAL COORDINATES **
   Searching for a Minimum

   Optimization Cycle:   2

                       Coordinates (Angstroms)
     ATOM                X               Y               Z
      1  S         1.8649579644   -1.2188192695   -0.1907069446
      2  C         3.2436237064   -0.1250713069   -0.0244117400
      3  C         2.8129715464    1.1741632603    0.1727978324
      4  C         1.4104385252    1.3263801637    0.2202088535
      5  C         0.6943220542    0.1220818439    0.0329333904
      6  H         0.9096794166    2.2732208534    0.3930628746
      7  C        -0.6943220542   -0.1220818439    0.0329333904
      8  S        -1.8649579644    1.2188192695   -0.1907069446
      9  C        -1.4104385252   -1.3263801637    0.2202088535
     10  C        -3.2436237064    0.1250713069   -0.0244117400
     11  C        -2.8129715464   -1.1741632603    0.1727978324
     12  H        -3.5035982625   -2.0041711604    0.3027392000
     13  H         4.2528781420   -0.5087068103   -0.0799865804
     14  H         3.5035982625    2.0041711604    0.3027392000
     15  H        -4.2528781420    0.5087068103   -0.0799865804
     16  H        -0.9096794166   -2.2732208534    0.3930628746
   Point Group: c2    Number of degrees of freedom:    22


   Energy is  -1104.844892683

              Constraints and their Current Values
                                        Value     Constraint
   Dihedral:        4   5   7   9     -160.000     -160.000
 Hessian Updated using BFGS Update

 17 Hessian modes will be used to form the next step
  Hessian Eigenvalues:
     0.020202    0.052976    0.159989    0.160000    0.160214    0.221179
     0.237652    0.250717    0.264389    0.283928    0.350975    0.354231
     0.358567    0.414689    0.425508    0.447675    0.471479

 Minimum Search - Taking Simple RFO Step
 Searching for Lamda that Minimizes Along All modes
 Value Taken    Lamda =  -0.00035349
 Step Taken.  Stepsize is  0.130805

                             Maximum     Tolerance    Cnvgd?
         Gradient           0.001689      0.000300      NO
         Displacement       0.088590      0.001200      NO
         Energy change     -0.000427      0.000001      NO


 New Cartesian Coordinates Obtained by Inverse Iteration

 Displacement from previous Coordinates is:  0.324066
 ----------------------------------------------------------------
             Standard Nuclear Orientation (Angstroms)
    I     Atom           X                Y                Z
 ----------------------------------------------------------------
    1      S       1.8676091446    -1.2237236585    -0.1732062189
    2      C       3.2429222319    -0.1285405158     0.0083416344
    3      C       2.8101128652     1.1752631007     0.1681453868
    4      C       1.4071233208     1.3294451805     0.1784881131
    5      C       0.6939116977     0.1238818072    -0.0086748198
    6      H       0.9026457118     2.2761911659     0.3409272967
    7      C      -0.6939116977    -0.1238818072    -0.0086748198
    8      S      -1.8676091446     1.2237236585    -0.1732062189
    9      C      -1.4071233208    -1.3294451805     0.1784881131
   10      C      -3.2429222319     0.1285405158     0.0083416344
   11      C      -2.8101128652    -1.1752631007     0.1681453868
   12      H      -3.4984155840    -2.0052294918     0.3098755692
   13      H       4.2521950552    -0.5161453310     0.0027399243
   14      H       3.4984155840     2.0052294918     0.3098755692
   15      H      -4.2521950552     0.5161453310     0.0027399243
   16      H      -0.9026457118    -2.2761911659     0.3409272967
 ----------------------------------------------------------------
 Molecular Point Group                 C2    NOp =  2
 Largest Abelian Subgroup              C2    NOp =  2
 Nuclear Repulsion Energy =   623.4440740516 hartrees
 There are       44 alpha and       43 beta electrons
 Applying Cartesian multipole field
    Component          Value
    ---------          -----
     (2,0,0)        1.00000E-11
     (0,2,0)        2.00000E-11
     (0,0,2)       -3.00000E-11
 Nucleus-field energy     =     0.0000000224 hartrees
 Requested basis set is 6-31++G(d,p)
 There are 76 shells and 234 basis functions
 A cutoff of  1.0D-11 yielded   2491 shell pairs
 There are     24623 function pairs
 Smallest overlap matrix eigenvalue = 8.06E-07

 Q-Chem warning in module /project/projectdirs/jcesr/qchem/qc44/cnl_qc441/compile/cori/qc_src/stvman/mkSTV.C, line 257:

 Overlap eigenvalue is smaller than square root of threshold

 Linear dependence detected in AO basis
 Number of orthogonalized atomic orbitals = 233
 Maximum deviation from orthogonality = 4.872E-11
 Guess MOs from SCF MO coefficient file
 Reading MOs from coefficient file
 Reading MOs from coefficient file
 An unrestricted hybrid HF-DFT SCF calculation will be
 performed using Pulay DIIS extrapolation
 Exchange:     0.2000 Hartree-Fock + 0.0800 Slater + 0.7200 B88
 Correlation:  0.1900 VWN1RPA + 0.8100 LYP
 Using SG-1 standard quadrature grid
 SCF converges when DIIS error is below 1.0E-08
 Geometry optimization detected.  Setting ReadMinima to 0
 Setting SaveMinima to 0
 ---------------------------------------
  Cycle       Energy         DIIS Error
 ---------------------------------------
    1   -1104.8415485125      1.18E-03
    2   -1104.8450001969      9.04E-05
    3   -1104.8447687092      1.99E-04
    4   -1104.8450970731      1.70E-05
    5   -1104.8450988701      1.06E-05
    6   -1104.8450997468      2.65E-06
    7   -1104.8450998155      8.38E-07
    8   -1104.8450998255      2.53E-07
    9   -1104.8450998281      1.40E-07
   10   -1104.8450998288      3.77E-08
   11   -1104.8450998294      1.88E-08
   12   -1104.8450998297      1.00E-08
   13   -1104.8450998297      2.59E-09 Convergence criterion met
 ---------------------------------------
 <S^2> = 0.7631
 SCF time:  CPU 8.37 s  wall 7.53 s
 SCF   energy in the final basis set = -1104.8450998297
 Total energy in the final basis set = -1104.8450998297
 
 --------------------------------------------------------------
             Orbital Energies (a.u.) and Symmetries
 --------------------------------------------------------------
 
 Alpha MOs, Unrestricted
 -- Occupied --                  
-88.751 -88.751 -10.065 -10.064 -10.057 -10.057 -10.049 -10.049
  1 A     1 B     2 A     2 B     3 B     3 A     4 A     4 B                  
-10.033 -10.033  -7.810  -7.810  -5.774  -5.774  -5.771  -5.771
  5 B     5 A     6 A     6 B     7 A     7 B     8 B     8 A                  
 -5.767  -5.767  -0.724  -0.702  -0.606  -0.582  -0.570  -0.536
  9 B     9 A    10 A    10 B    11 A    11 B    12 A    12 B                  
 -0.447  -0.418  -0.390  -0.370  -0.364  -0.316  -0.261  -0.256
 13 A    13 B    14 A    14 B    15 A    15 B    16 B    16 A                  
 -0.242  -0.241  -0.240  -0.212  -0.209  -0.195  -0.177  -0.126
 17 A    17 B    18 A    19 A    18 B    19 B    20 A    21 A                  
 -0.109  -0.102  -0.051   0.048
 20 B    22 A    21 B    23 A                                                  
 -- Virtual --                   
  0.094   0.096   0.111   0.113   0.124   0.135   0.141   0.147
 24 A    22 B    23 B    25 A    26 A    24 B    25 B    26 B                  
  0.158   0.163   0.170   0.174   0.177   0.182   0.186   0.192
 27 A    28 A    29 A    27 B    28 B    30 A    29 B    31 A                  
  0.198   0.205   0.208   0.211   0.219   0.221   0.228   0.230
 30 B    32 A    31 B    33 A    34 A    32 B    35 A    33 B                  
  0.236   0.237   0.241   0.244   0.250   0.254   0.264   0.267
 34 B    36 A    37 A    35 B    36 B    37 B    38 A    39 A                  
  0.270   0.283   0.285   0.291   0.297   0.300   0.307   0.317
 38 B    40 A    39 B    41 A    40 B    42 A    43 A    41 B                  
  0.321   0.329   0.333   0.336   0.338   0.341   0.353   0.375
 42 B    44 A    43 B    45 A    44 B    46 A    45 B    46 B                  
  0.381   0.386   0.398   0.404   0.411   0.423   0.427   0.453
 47 A    47 B    48 A    49 A    48 B    49 B    50 A    50 B                  
  0.453   0.481   0.483   0.484   0.507   0.543   0.555   0.597
 51 A    52 A    51 B    53 A    52 B    54 A    53 B    54 B                  
  0.609   0.660   0.665   0.688   0.705   0.709   0.731   0.754
 55 A    55 B    56 A    57 A    56 B    57 B    58 A    59 A                  
  0.772   0.788   0.802   0.805   0.815   0.822   0.826   0.850
 58 B    60 A    59 B    60 B    61 A    61 B    62 A    63 A                  
  0.866   0.877   0.886   0.897   0.902   0.924   0.931   0.979
 62 B    64 A    63 B    64 B    65 A    66 A    65 B    66 B                  
  0.981   0.982   1.008   1.013   1.068   1.086   1.100   1.103
 67 B    67 A    68 A    69 A    68 B    70 A    69 B    71 A                  
  1.106   1.111   1.120   1.129   1.139   1.139   1.169   1.178
 72 A    70 B    71 B    72 B    73 B    73 A    74 B    74 A                  
  1.189   1.209   1.247   1.255   1.263   1.289   1.305   1.324
 75 A    76 A    77 A    75 B    76 B    77 B    78 A    79 A                  
  1.329   1.362   1.404   1.410   1.473   1.494   1.509   1.513
 78 B    80 A    79 B    81 A    80 B    82 A    81 B    82 B                  
  1.518   1.533   1.631   1.633   1.661   1.691   1.757   1.834
 83 A    84 A    83 B    85 A    84 B    85 B    86 A    87 A                  
  1.842   1.880   1.984   2.005   2.019   2.048   2.057   2.080
 86 B    88 A    89 A    87 B    90 A    88 B    91 A    89 B                  
  2.104   2.109   2.163   2.191   2.209   2.227   2.267   2.301
 92 A    90 B    93 A    91 B    94 A    92 B    93 B    95 A                  
  2.315   2.322   2.365   2.388   2.421   2.496   2.513   2.516
 96 A    94 B    97 A    95 B    96 B    98 A    97 B    99 A                  
  2.563   2.604   2.609   2.614   2.644   2.666   2.684   2.690
 98 B   100 A    99 B   101 A   100 B   102 A   103 A   101 B                  
  2.717   2.739   2.766   2.824   2.839   2.874   2.898   3.016
102 B   104 A   103 B   105 A   106 A   104 B   105 B   107 A                  
  3.025   3.073   3.115   3.295   3.361   3.414   3.421   3.554
106 B   108 A   107 B   108 B   109 A   109 B   110 A   111 A                  
  3.579   3.866   3.889   4.131   4.139   4.410   4.456   4.464
110 B   112 A   111 B   112 B   113 A   114 A   113 B   115 A                  
  4.476   4.577   4.681   4.814   4.870
114 B   116 A   115 B   117 A   116 B                                          
 
 Beta MOs, Unrestricted
 -- Occupied --                  
-88.750 -88.750 -10.063 -10.062 -10.054 -10.054 -10.050 -10.050
  1 A     1 B     2 A     2 B     3 B     3 A     4 A     4 B                  
-10.031 -10.031  -7.809  -7.809  -5.774  -5.774  -5.771  -5.771
  5 B     5 A     6 A     6 B     7 A     7 B     8 B     8 A                  
 -5.765  -5.765  -0.720  -0.699  -0.601  -0.579  -0.567  -0.532
  9 B     9 A    10 A    10 B    11 A    11 B    12 A    12 B                  
 -0.440  -0.415  -0.387  -0.367  -0.362  -0.314  -0.259  -0.254
 13 A    13 B    14 A    14 B    15 A    15 B    16 B    16 A                  
 -0.239  -0.239  -0.231  -0.210  -0.200  -0.192  -0.175  -0.111
 17 B    17 A    18 A    19 A    18 B    19 B    20 A    21 A                  
 -0.100  -0.093  -0.033
 20 B    22 A    21 B                                                          
 -- Virtual --                   
  0.094   0.096   0.101   0.110   0.113   0.124   0.135   0.146
 23 A    22 B    24 A    23 B    25 A    26 A    24 B    25 B                  
  0.154   0.158   0.164   0.171   0.174   0.178   0.186   0.187
 26 B    27 A    28 A    29 A    27 B    28 B    29 B    30 A                  
  0.193   0.198   0.205   0.212   0.214   0.222   0.222   0.230
 31 A    30 B    32 A    33 A    31 B    34 A    32 B    33 B                  
  0.230   0.236   0.237   0.242   0.245   0.253   0.256   0.265
 35 A    34 B    36 A    37 A    35 B    36 B    37 B    38 A                  
  0.268   0.271   0.283   0.286   0.292   0.301   0.302   0.307
 39 A    38 B    40 A    39 B    41 A    42 A    40 B    43 A                  
  0.320   0.322   0.329   0.333   0.337   0.338   0.343   0.352
 41 B    42 B    44 A    43 B    45 A    44 B    46 A    45 B                  
  0.376   0.381   0.386   0.399   0.405   0.412   0.427   0.428
 46 B    47 A    47 B    48 A    49 A    48 B    49 B    50 A                  
  0.454   0.455   0.482   0.484   0.486   0.507   0.545   0.558
 51 A    50 B    52 A    51 B    53 A    52 B    54 A    53 B                  
  0.598   0.610   0.663   0.667   0.689   0.707   0.711   0.733
 54 B    55 A    55 B    56 A    57 A    56 B    57 B    58 A                  
  0.755   0.774   0.794   0.806   0.815   0.820   0.827   0.833
 59 A    58 B    60 A    59 B    60 B    61 A    61 B    62 A                  
  0.854   0.870   0.877   0.887   0.901   0.910   0.926   0.933
 63 A    62 B    64 A    63 B    64 B    65 A    66 A    65 B                  
  0.981   0.989   0.989   1.013   1.016   1.069   1.087   1.103
 66 B    67 B    67 A    68 A    69 A    68 B    70 A    69 B                  
  1.103   1.109   1.113   1.123   1.130   1.140   1.140   1.171
 71 A    72 A    70 B    71 B    72 B    73 B    73 A    74 B                  
  1.180   1.192   1.212   1.251   1.257   1.266   1.292   1.307
 74 A    75 A    76 A    77 A    75 B    76 B    77 B    78 A                  
  1.328   1.330   1.364   1.406   1.416   1.476   1.497   1.512
 79 A    78 B    80 A    79 B    81 A    80 B    82 A    81 B                  
  1.519   1.523   1.538   1.634   1.635   1.667   1.694   1.760
 82 B    83 A    84 A    83 B    85 A    84 B    85 B    86 A                  
  1.843   1.853   1.889   1.988   2.007   2.025   2.049   2.059
 87 A    86 B    88 A    89 A    87 B    90 A    88 B    91 A                  
  2.084   2.106   2.114   2.167   2.192   2.211   2.233   2.274
 89 B    92 A    90 B    93 A    91 B    94 A    92 B    93 B                  
  2.310   2.321   2.326   2.369   2.396   2.425   2.501   2.515
 95 A    96 A    94 B    97 A    95 B    96 B    98 A    97 B                  
  2.518   2.564   2.609   2.614   2.616   2.646   2.669   2.686
 99 A    98 B   100 A    99 B   101 A   100 B   102 A   103 A                  
  2.692   2.723   2.742   2.769   2.826   2.842   2.878   2.900
101 B   102 B   104 A   103 B   105 A   106 A   104 B   105 B                  
  3.018   3.028   3.075   3.117   3.296   3.363   3.414   3.421
107 A   106 B   108 A   107 B   108 B   109 A   109 B   110 A                  
  3.556   3.580   3.867   3.890   4.132   4.141   4.415   4.460
111 A   110 B   112 A   111 B   112 B   113 A   114 A   113 B                  
  4.465   4.479   4.582   4.686   4.817   4.873
115 A   114 B   116 A   115 B   117 A   116 B                                  
 --------------------------------------------------------------
 
          Ground-State Mulliken Net Atomic Charges

     Atom                 Charge (a.u.)    Spin (a.u.)
  --------------------------------------------------------
      1 S                    -0.297678       0.103504
      2 C                    -0.103300       0.241918
      3 C                    -0.325240      -0.076122
      4 C                     0.180933       0.259163
      5 C                    -0.264704      -0.012715
      6 H                     0.088926      -0.005959
      7 C                    -0.264704      -0.012715
      8 S                    -0.297678       0.103504
      9 C                     0.180933       0.259163
     10 C                    -0.103300       0.241918
     11 C                    -0.325240      -0.076122
     12 H                     0.073840       0.004049
     13 H                     0.147223      -0.013838
     14 H                     0.073840       0.004049
     15 H                     0.147223      -0.013838
     16 H                     0.088926      -0.005959
  --------------------------------------------------------
  Sum of atomic charges =    -1.000000
  Sum of spin   charges =     1.000000

 -----------------------------------------------------------------
                    Cartesian Multipole Moments
 -----------------------------------------------------------------
    Charge (ESU x 10^10)
                -4.8032
    Dipole Moment (Debye)
         X       0.0000      Y      -0.0000      Z       0.2414
       Tot       0.2414
    Quadrupole Moments (Debye-Ang)
        XX     -99.6345     XY       0.8485     YY     -83.9164
        XZ       0.0000     YZ       0.0000     ZZ     -87.1957
    Octopole Moments (Debye-Ang^2)
       XXX      -0.0000    XXY       0.0000    XYY      -0.0000
       YYY      -0.0000    XXZ       2.2472    XYZ       2.0435
       YYZ       1.7090    XZZ      -0.0000    YZZ      -0.0000
       ZZZ      -2.0547
    Hexadecapole Moments (Debye-Ang^3)
      XXXX   -2497.7266   XXXY     -32.4835   XXYY    -519.2689
      XYYY       9.5471   YYYY    -686.8647   XXXZ       0.0000
      XXYZ       0.0000   XYYZ       0.0000   YYYZ       0.0000
      XXZZ    -494.1117   XYZZ      -6.8838   YYZZ    -157.2006
      XZZZ       0.0000   YZZZ       0.0000   ZZZZ    -154.5373
 -----------------------------------------------------------------
 Calculating analytic gradient of the SCF energy
 Gradient of SCF Energy
            1           2           3           4           5           6
    1   0.0000446  -0.0000815   0.0000111   0.0000916   0.0001933  -0.0000863
    2  -0.0000374  -0.0002402   0.0003442  -0.0009409   0.0014508  -0.0000307
    3  -0.0005248   0.0007095  -0.0012435   0.0041183  -0.0032514   0.0000147
            7           8           9          10          11          12
    1  -0.0001933  -0.0000446  -0.0000916   0.0000815  -0.0000111  -0.0000095
    2  -0.0014508   0.0000374   0.0009409   0.0002402  -0.0003442   0.0000292
    3  -0.0032514  -0.0005248   0.0041183   0.0007095  -0.0012435   0.0001856
           13          14          15          16
    1  -0.0000182   0.0000095   0.0000182   0.0000863
    2   0.0000043  -0.0000292  -0.0000043   0.0000307
    3  -0.0000084   0.0001856  -0.0000084   0.0000147
 Max gradient component =       4.118E-03
 RMS gradient           =       1.175E-03
 Gradient time:  CPU 1.74 s  wall 1.75 s
 Geometry Optimization Parameters
   NAtoms,    NIC,     NZ,  NCons,   NDum,   NFix, NCnnct, MaxDiis
       16     111       0       1       0       0       0       0

 Cartesian Hessian Update
 Hessian Updated using BFGS Update


** CONSTRAINED OPTIMIZATION IN DELOCALIZED INTERNAL COORDINATES **
   Searching for a Minimum

   Optimization Cycle:   3

                       Coordinates (Angstroms)
     ATOM                X               Y               Z
      1  S         1.8676091446   -1.2237236585   -0.1732062189
      2  C         3.2429222319   -0.1285405158    0.0083416344
      3  C         2.8101128652    1.1752631007    0.1681453868
      4  C         1.4071233208    1.3294451805    0.1784881131
      5  C         0.6939116977    0.1238818072   -0.0086748198
      6  H         0.9026457118    2.2761911659    0.3409272967
      7  C        -0.6939116977   -0.1238818072   -0.0086748198
      8  S        -1.8676091446    1.2237236585   -0.1732062189
      9  C        -1.4071233208   -1.3294451805    0.1784881131
     10  C        -3.2429222319    0.1285405158    0.0083416344
     11  C        -2.8101128652   -1.1752631007    0.1681453868
     12  H        -3.4984155840   -2.0052294918    0.3098755692
     13  H         4.2521950552   -0.5161453310    0.0027399243
     14  H         3.4984155840    2.0052294918    0.3098755692
     15  H        -4.2521950552    0.5161453310    0.0027399243
     16  H        -0.9026457118   -2.2761911659    0.3409272967
   Point Group: c2    Number of degrees of freedom:    22


   Energy is  -1104.845099830

              Constraints and their Current Values
                                        Value     Constraint
   Dihedral:        4   5   7   9     -160.000     -160.000
 Hessian Updated using BFGS Update

 19 Hessian modes will be used to form the next step
  Hessian Eigenvalues:
     0.015873    0.045000    0.045180    0.056584    0.159993    0.160000
     0.160519    0.221601    0.237859    0.250515    0.264465    0.283929
     0.350974    0.354234    0.358568    0.415836    0.425551    0.447561
     0.471553

 Minimum Search - Taking Simple RFO Step
 Searching for Lamda that Minimizes Along All modes
 Value Taken    Lamda =  -0.00004496
 Step Taken.  Stepsize is  0.044105

                             Maximum     Tolerance    Cnvgd?
         Gradient           0.000752      0.000300      NO
         Displacement       0.025297      0.001200      NO
         Energy change     -0.000207      0.000001      NO


 New Cartesian Coordinates Obtained by Inverse Iteration

 Displacement from previous Coordinates is:  0.091922
 ----------------------------------------------------------------
             Standard Nuclear Orientation (Angstroms)
    I     Atom           X                Y                Z
 ----------------------------------------------------------------
    1      S       1.8682250243    -1.2246473380    -0.1666989253
    2      C       3.2429957889    -0.1291011948     0.0162555321
    3      C       2.8093548986     1.1749324380     0.1707951462
    4      C       1.4064290496     1.3307222189     0.1658107023
    5      C       0.6937029887     0.1245557252    -0.0213118531
    6      H       0.9017279011     2.2781213292     0.3235622516
    7      C      -0.6937029887    -0.1245557252    -0.0213118531
    8      S      -1.8682250243     1.2246473380    -0.1666989253
    9      C      -1.4064290496    -1.3307222189     0.1658107023
   10      C      -3.2429957889     0.1291011948     0.0162555321
   11      C      -2.8093548986    -1.1749324380     0.1707951462
   12      H      -3.4969601410    -2.0049552581     0.3153478901
   13      H       4.2519727058    -0.5175728774     0.0228761420
   14      H       3.4969601410     2.0049552581     0.3153478901
   15      H      -4.2519727058     0.5175728774     0.0228761420
   16      H      -0.9017279011    -2.2781213292     0.3235622516
 ----------------------------------------------------------------
 Molecular Point Group                 C2    NOp =  2
 Largest Abelian Subgroup              C2    NOp =  2
 Nuclear Repulsion Energy =   623.4627830071 hartrees
 There are       44 alpha and       43 beta electrons
 Applying Cartesian multipole field
    Component          Value
    ---------          -----
     (2,0,0)        1.00000E-11
     (0,2,0)        2.00000E-11
     (0,0,2)       -3.00000E-11
 Nucleus-field energy     =     0.0000000225 hartrees
 Requested basis set is 6-31++G(d,p)
 There are 76 shells and 234 basis functions
 A cutoff of  1.0D-11 yielded   2491 shell pairs
 There are     24623 function pairs
 Smallest overlap matrix eigenvalue = 8.14E-07

 Q-Chem warning in module /project/projectdirs/jcesr/qchem/qc44/cnl_qc441/compile/cori/qc_src/stvman/mkSTV.C, line 257:

 Overlap eigenvalue is smaller than square root of threshold

 Linear dependence detected in AO basis
 Number of orthogonalized atomic orbitals = 233
 Maximum deviation from orthogonality = 8.758E-11
 Guess MOs from SCF MO coefficient file
 Reading MOs from coefficient file
 Reading MOs from coefficient file
 An unrestricted hybrid HF-DFT SCF calculation will be
 performed using Pulay DIIS extrapolation
 Exchange:     0.2000 Hartree-Fock + 0.0800 Slater + 0.7200 B88
 Correlation:  0.1900 VWN1RPA + 0.8100 LYP
 Using SG-1 standard quadrature grid
 SCF converges when DIIS error is below 1.0E-08
 Geometry optimization detected.  Setting ReadMinima to 0
 Setting SaveMinima to 0
 ---------------------------------------
  Cycle       Energy         DIIS Error
 ---------------------------------------
    1   -1104.8437523977      3.69E-04
    2   -1104.8451219743      2.46E-05
    3   -1104.8451095599      4.91E-05
    4   -1104.8451295344      7.02E-06
    5   -1104.8451298763      3.39E-06
    6   -1104.8451299663      1.05E-06
    7   -1104.8451299801      3.04E-07
    8   -1104.8451299805      9.01E-08
    9   -1104.8451299805      5.25E-08
   10   -1104.8451299809      1.20E-08
   11   -1104.8451299821      4.88E-09 Convergence criterion met
 ---------------------------------------
 <S^2> = 0.7631
 SCF time:  CPU 7.09 s  wall 6.40 s
 SCF   energy in the final basis set = -1104.8451299821
 Total energy in the final basis set = -1104.8451299821
 
 --------------------------------------------------------------
             Orbital Energies (a.u.) and Symmetries
 --------------------------------------------------------------
 
 Alpha MOs, Unrestricted
 -- Occupied --                  
-88.751 -88.751 -10.065 -10.064 -10.057 -10.057 -10.049 -10.049
  1 A     1 B     2 A     2 B     3 B     3 A     4 A     4 B                  
-10.033 -10.033  -7.810  -7.810  -5.774  -5.774  -5.771  -5.771
  5 B     5 A     6 A     6 B     7 A     7 B     8 B     8 A                  
 -5.767  -5.767  -0.724  -0.702  -0.606  -0.582  -0.570  -0.536
  9 B     9 A    10 A    10 B    11 A    11 B    12 A    12 B                  
 -0.447  -0.418  -0.390  -0.370  -0.364  -0.316  -0.261  -0.256
 13 A    13 B    14 A    14 B    15 A    15 B    16 B    16 A                  
 -0.242  -0.241  -0.240  -0.212  -0.209  -0.194  -0.177  -0.127
 17 A    17 B    18 A    19 A    18 B    19 B    20 A    21 A                  
 -0.109  -0.102  -0.051   0.048
 20 B    22 A    21 B    23 A                                                  
 -- Virtual --                   
  0.094   0.096   0.111   0.113   0.124   0.135   0.141   0.147
 24 A    22 B    23 B    25 A    26 A    24 B    25 B    26 B                  
  0.158   0.164   0.169   0.174   0.178   0.182   0.186   0.192
 27 A    28 A    29 A    27 B    28 B    30 A    29 B    31 A                  
  0.198   0.205   0.209   0.211   0.219   0.221   0.229   0.230
 30 B    32 A    31 B    33 A    34 A    32 B    35 A    33 B                  
  0.235   0.237   0.241   0.244   0.250   0.254   0.264   0.267
 34 B    36 A    37 A    35 B    36 B    37 B    38 A    39 A                  
  0.270   0.283   0.285   0.292   0.297   0.300   0.307   0.317
 38 B    40 A    39 B    41 A    40 B    42 A    43 A    41 B                  
  0.321   0.328   0.334   0.337   0.339   0.342   0.353   0.375
 42 B    44 A    43 B    45 A    44 B    46 A    45 B    46 B                  
  0.381   0.386   0.399   0.404   0.411   0.423   0.425   0.452
 47 A    47 B    48 A    49 A    48 B    49 B    50 A    50 B                  
  0.453   0.481   0.483   0.484   0.507   0.544   0.555   0.597
 51 A    52 A    51 B    53 A    52 B    54 A    53 B    54 B                  
  0.609   0.660   0.665   0.689   0.706   0.709   0.732   0.753
 55 A    55 B    56 A    57 A    56 B    57 B    58 A    59 A                  
  0.773   0.791   0.802   0.803   0.815   0.822   0.826   0.852
 58 B    60 A    59 B    60 B    61 A    61 B    62 A    63 A                  
  0.866   0.877   0.886   0.897   0.901   0.925   0.931   0.979
 62 B    64 A    63 B    64 B    65 A    66 A    65 B    66 B                  
  0.981   0.982   1.007   1.013   1.068   1.086   1.099   1.104
 67 B    67 A    68 A    69 A    68 B    70 A    69 B    71 A                  
  1.106   1.111   1.121   1.129   1.138   1.140   1.170   1.178
 72 A    70 B    71 B    72 B    73 B    73 A    74 B    74 A                  
  1.190   1.210   1.248   1.255   1.263   1.289   1.304   1.323
 75 A    76 A    77 A    75 B    76 B    77 B    78 A    79 A                  
  1.329   1.363   1.404   1.410   1.473   1.496   1.509   1.512
 78 B    80 A    79 B    81 A    80 B    82 A    81 B    82 B                  
  1.519   1.533   1.631   1.632   1.661   1.689   1.759   1.834
 83 A    84 A    83 B    85 A    84 B    85 B    86 A    87 A                  
  1.843   1.880   1.984   2.005   2.019   2.048   2.057   2.081
 86 B    88 A    89 A    87 B    90 A    88 B    91 A    89 B                  
  2.103   2.108   2.163   2.191   2.209   2.226   2.268   2.300
 92 A    90 B    93 A    91 B    94 A    92 B    93 B    95 A                  
  2.315   2.322   2.364   2.388   2.421   2.496   2.513   2.516
 96 A    94 B    97 A    95 B    96 B    98 A    97 B    99 A                  
  2.562   2.604   2.608   2.614   2.644   2.666   2.685   2.690
 98 B   100 A    99 B   101 A   100 B   102 A   103 A   101 B                  
  2.718   2.739   2.767   2.825   2.839   2.874   2.897   3.017
102 B   104 A   103 B   105 A   106 A   104 B   105 B   107 A                  
  3.024   3.074   3.115   3.295   3.362   3.414   3.421   3.554
106 B   108 A   107 B   108 B   109 A   109 B   110 A   111 A                  
  3.578   3.866   3.888   4.131   4.140   4.410   4.456   4.464
110 B   112 A   111 B   112 B   113 A   114 A   113 B   115 A                  
  4.476   4.576   4.681   4.814   4.870
114 B   116 A   115 B   117 A   116 B                                          
 
 Beta MOs, Unrestricted
 -- Occupied --                  
-88.750 -88.750 -10.063 -10.063 -10.054 -10.054 -10.050 -10.050
  1 A     1 B     2 A     2 B     3 B     3 A     4 A     4 B                  
-10.031 -10.031  -7.809  -7.809  -5.774  -5.774  -5.771  -5.771
  5 B     5 A     6 A     6 B     7 A     7 B     8 B     8 A                  
 -5.765  -5.765  -0.720  -0.699  -0.601  -0.579  -0.567  -0.532
  9 B     9 A    10 A    10 B    11 A    11 B    12 A    12 B                  
 -0.440  -0.415  -0.387  -0.367  -0.362  -0.314  -0.259  -0.254
 13 A    13 B    14 A    14 B    15 A    15 B    16 B    16 A                  
 -0.239  -0.239  -0.231  -0.210  -0.200  -0.192  -0.174  -0.111
 17 B    17 A    18 A    19 A    18 B    19 B    20 A    21 A                  
 -0.100  -0.093  -0.033
 20 B    22 A    21 B                                                          
 -- Virtual --                   
  0.094   0.096   0.101   0.110   0.113   0.124   0.135   0.146
 23 A    22 B    24 A    23 B    25 A    26 A    24 B    25 B                  
  0.154   0.157   0.164   0.170   0.175   0.178   0.187   0.187
 26 B    27 A    28 A    29 A    27 B    28 B    29 B    30 A                  
  0.193   0.198   0.204   0.212   0.214   0.222   0.222   0.230
 31 A    30 B    32 A    33 A    31 B    34 A    32 B    33 B                  
  0.231   0.236   0.237   0.242   0.244   0.253   0.257   0.265
 35 A    34 B    36 A    37 A    35 B    36 B    37 B    38 A                  
  0.268   0.271   0.283   0.286   0.292   0.301   0.301   0.307
 39 A    38 B    40 A    39 B    41 A    42 A    40 B    43 A                  
  0.320   0.322   0.329   0.334   0.339   0.339   0.343   0.353
 41 B    42 B    44 A    43 B    45 A    44 B    46 A    45 B                  
  0.375   0.381   0.387   0.399   0.405   0.412   0.426   0.427
 46 B    47 A    47 B    48 A    49 A    48 B    50 A    49 B                  
  0.454   0.454   0.482   0.484   0.486   0.507   0.546   0.558
 51 A    50 B    52 A    51 B    53 A    52 B    54 A    53 B                  
  0.598   0.611   0.662   0.668   0.690   0.707   0.711   0.734
 54 B    55 A    55 B    56 A    57 A    56 B    57 B    58 A                  
  0.754   0.775   0.796   0.804   0.814   0.820   0.827   0.833
 59 A    58 B    60 A    59 B    60 B    61 A    61 B    62 A                  
  0.855   0.870   0.877   0.887   0.901   0.909   0.927   0.933
 63 A    62 B    64 A    63 B    64 B    65 A    66 A    65 B                  
  0.981   0.989   0.989   1.013   1.016   1.069   1.087   1.102
 66 B    67 B    67 A    68 A    69 A    68 B    70 A    69 B                  
  1.104   1.109   1.113   1.124   1.130   1.139   1.141   1.172
 71 A    72 A    70 B    71 B    72 B    73 B    73 A    74 B                  
  1.180   1.192   1.212   1.252   1.257   1.266   1.291   1.307
 74 A    75 A    76 A    77 A    75 B    76 B    77 B    78 A                  
  1.328   1.330   1.365   1.406   1.415   1.476   1.498   1.512
 79 A    78 B    80 A    79 B    81 A    80 B    82 A    81 B                  
  1.518   1.524   1.537   1.634   1.634   1.667   1.692   1.762
 82 B    83 A    84 A    83 B    85 A    84 B    85 B    86 A                  
  1.844   1.853   1.888   1.988   2.007   2.024   2.049   2.059
 87 A    86 B    88 A    89 A    87 B    90 A    88 B    91 A                  
  2.085   2.105   2.112   2.167   2.192   2.211   2.233   2.274
 89 B    92 A    90 B    93 A    91 B    94 A    92 B    93 B                  
  2.310   2.321   2.326   2.369   2.395   2.425   2.501   2.515
 95 A    96 A    94 B    97 A    95 B    96 B    98 A    97 B                  
  2.518   2.564   2.609   2.613   2.616   2.646   2.669   2.687
 99 A    98 B   100 A    99 B   101 A   100 B   102 A   103 A                  
  2.692   2.724   2.742   2.770   2.826   2.842   2.878   2.899
101 B   102 B   104 A   103 B   105 A   106 A   104 B   105 B                  
  3.019   3.028   3.075   3.117   3.296   3.363   3.414   3.421
107 A   106 B   108 A   107 B   108 B   109 A   109 B   110 A                  
[...]
      3 C                    -0.338657      -0.077823
      4 C                     0.198377       0.267240
      5 C                    -0.268714      -0.018588
      6 H                     0.088745      -0.005350
      7 C                    -0.268714      -0.018588
      8 S                    -0.299854       0.100598
      9 C                     0.198377       0.267240
     10 C                    -0.101108       0.243733
     11 C                    -0.338657      -0.077823
     12 H                     0.073531       0.004037
     13 H                     0.147681      -0.013847
     14 H                     0.073531       0.004037
     15 H                     0.147681      -0.013847
     16 H                     0.088745      -0.005350
  --------------------------------------------------------
  Sum of atomic charges =    -1.000000
  Sum of spin   charges =     1.000000

 -----------------------------------------------------------------
                    Cartesian Multipole Moments
 -----------------------------------------------------------------
    Charge (ESU x 10^10)
                -4.8032
    Dipole Moment (Debye)
         X      -0.0000      Y      -0.0000      Z       0.2347
       Tot       0.2347
    Quadrupole Moments (Debye-Ang)
        XX     -99.6075     XY       0.8303     YY     -83.8936
        XZ      -0.0000     YZ      -0.0000     ZZ     -87.2190
    Octopole Moments (Debye-Ang^2)
       XXX      -0.0000    XXY      -0.0000    XYY      -0.0000
       YYY      -0.0000    XXZ       2.6019    XYZ       1.8997
       YYZ       1.3851    XZZ      -0.0000    YZZ      -0.0000
       ZZZ      -2.7977
    Hexadecapole Moments (Debye-Ang^3)
      XXXX   -2496.6366   XXXY     -32.5968   XXYY    -518.9418
      XYYY       9.7685   YYYY    -687.4121   XXXZ      -0.0000
      XXYZ      -0.0000   XYYZ      -0.0000   YYYZ      -0.0000
      XXZZ    -493.6864   XYZZ      -6.6394   YYZZ    -157.5248
      XZZZ      -0.0000   YZZZ      -0.0000   ZZZZ    -153.4541
 -----------------------------------------------------------------
 Calculating analytic gradient of the SCF energy
 Gradient of SCF Energy
            1           2           3           4           5           6
    1  -0.0000161   0.0000023   0.0000003   0.0001225  -0.0002801   0.0000145
    2  -0.0000077   0.0000027  -0.0000295  -0.0006209   0.0014448  -0.0000055
    3   0.0000039  -0.0000414   0.0000763   0.0035996  -0.0036594   0.0000318
            7           8           9          10          11          12
    1   0.0002801   0.0000161  -0.0001225  -0.0000023  -0.0000003  -0.0000068
    2  -0.0014448   0.0000077   0.0006209  -0.0000027   0.0000295   0.0000077
    3  -0.0036594   0.0000039   0.0035996  -0.0000414   0.0000763  -0.0000192
           13          14          15          16
    1  -0.0000031   0.0000068   0.0000031  -0.0000145
    2  -0.0000173  -0.0000077   0.0000173   0.0000055
    3   0.0000085  -0.0000192   0.0000085   0.0000318
 Max gradient component =       3.659E-03
 RMS gradient           =       1.098E-03
 Gradient time:  CPU 1.75 s  wall 1.75 s
 Geometry Optimization Parameters
   NAtoms,    NIC,     NZ,  NCons,   NDum,   NFix, NCnnct, MaxDiis
       16     111       0       1       0       0       0       0

 Cartesian Hessian Update
 Hessian Updated using BFGS Update


** CONSTRAINED OPTIMIZATION IN DELOCALIZED INTERNAL COORDINATES **
   Searching for a Minimum

   Optimization Cycle:   7

                       Coordinates (Angstroms)
     ATOM                X               Y               Z
      1  S         1.8677645155   -1.2252338722   -0.1605800479
      2  C         3.2426662138   -0.1293401165    0.0209840322
      3  C         2.8088093868    1.1744988325    0.1751945604
      4  C         1.4061640354    1.3314678234    0.1614910895
      5  C         0.6935537903    0.1248446468   -0.0256431999
      6  H         0.9021731259    2.2805255370    0.3109333928
      7  C        -0.6935537903   -0.1248446468   -0.0256431999
      8  S        -1.8677645155    1.2252338722   -0.1605800479
      9  C        -1.4061640354   -1.3314678234    0.1614910895
     10  C        -3.2426662138    0.1293401165    0.0209840322
     11  C        -2.8088093868   -1.1744988325    0.1751945604
     12  H        -3.4962620848   -2.0055171776    0.3148584819
     13  H         4.2514417582   -0.5182334686    0.0293985770
     14  H         3.4962620848    2.0055171776    0.3148584819
     15  H        -4.2514417582    0.5182334686    0.0293985770
     16  H        -0.9021731259   -2.2805255370    0.3109333928
   Point Group: c2    Number of degrees of freedom:    22


   Energy is  -1104.845140578

              Constraints and their Current Values
                                        Value     Constraint
   Dihedral:        4   5   7   9     -160.000     -160.000
 Hessian Updated using BFGS Update

 21 Hessian modes will be used to form the next step
  Hessian Eigenvalues:
     0.012085    0.017462    0.045001    0.045001    0.047319    0.047835
     0.159829    0.159983    0.160126    0.222291    0.242166    0.250044
     0.264352    0.284334    0.351035    0.354208    0.358795    0.414572
     0.427240    0.446392    0.471703

 Minimum Search - Taking Simple RFO Step
 Searching for Lamda that Minimizes Along All modes
 Value Taken    Lamda =   0.00000000
 Step Taken.  Stepsize is  0.002529

                             Maximum     Tolerance    Cnvgd?
         Gradient           0.000047      0.000300     YES
         Displacement       0.001284      0.001200      NO
         Energy change     -0.000001      0.000001     YES

 Final energy is   -1104.84514057781     


 ******************************
 **  OPTIMIZATION CONVERGED  **
 ******************************

                       Coordinates (Angstroms)
     ATOM                X               Y               Z
      1  S         1.8677645155   -1.2252338722   -0.1605800479
      2  C         3.2426662138   -0.1293401165    0.0209840322
      3  C         2.8088093868    1.1744988325    0.1751945604
      4  C         1.4061640354    1.3314678234    0.1614910895
      5  C         0.6935537903    0.1248446468   -0.0256431999
      6  H         0.9021731259    2.2805255370    0.3109333928
      7  C        -0.6935537903   -0.1248446468   -0.0256431999
      8  S        -1.8677645155    1.2252338722   -0.1605800479
      9  C        -1.4061640354   -1.3314678234    0.1614910895
     10  C        -3.2426662138    0.1293401165    0.0209840322
     11  C        -2.8088093868   -1.1744988325    0.1751945604
     12  H        -3.4962620848   -2.0055171776    0.3148584819
     13  H         4.2514417582   -0.5182334686    0.0293985770
     14  H         3.4962620848    2.0055171776    0.3148584819
     15  H        -4.2514417582    0.5182334686    0.0293985770
     16  H        -0.9021731259   -2.2805255370    0.3109333928

Z-matrix Print:
$molecule
-1 2
S 
C  1 1.767570
H  2 1.081174 1 120.235137
C  2 1.382754 1 110.610427 3 178.287834 0
H  4 1.087515 2 122.446843 1 -179.220758 0
C  4 1.411468 2 114.555964 1 -0.356558 0
H  6 1.084920 4 123.888915 2 -177.368427 0
C  6 1.413779 4 114.033221 2 0.783408 0
C  8 1.409401 6 130.336428 4 -176.287407 0
C  9 1.413779 8 130.336428 6 159.999995 0
H  10 1.084920 9 122.051199 8 1.902500 0
C  10 1.411468 9 114.033221 8 -176.287407 0
H  12 1.087515 10 122.986891 9 179.640709 0
C  12 1.382754 10 114.555964 9 0.783408 0
H  14 1.081174 12 129.127764 10 177.736482 0
S  14 1.767570 12 110.610427 10 -0.356558 0
$end

 
 --------------------------------------------------------------
             Orbital Energies (a.u.) and Symmetries
 --------------------------------------------------------------
 
 Alpha MOs, Unrestricted
 -- Occupied --                  
-88.751 -88.751 -10.065 -10.064 -10.057 -10.057 -10.049 -10.049
  1 A     1 B     2 A     2 B     3 B     3 A     4 A     4 B                  
-10.033 -10.033  -7.810  -7.810  -5.774  -5.774  -5.771  -5.771
  5 B     5 A     6 A     6 B     7 A     7 B     8 B     8 A                  
 -5.767  -5.767  -0.724  -0.702  -0.606  -0.582  -0.570  -0.536
  9 B     9 A    10 A    10 B    11 A    11 B    12 A    12 B                  
 -0.447  -0.418  -0.390  -0.370  -0.364  -0.316  -0.261  -0.256
 13 A    13 B    14 A    14 B    15 A    15 B    16 B    16 A                  
 -0.242  -0.241  -0.240  -0.212  -0.209  -0.195  -0.176  -0.127
 17 A    17 B    18 A    19 A    18 B    19 B    20 A    21 A                  
 -0.109  -0.102  -0.051   0.048
 20 B    22 A    21 B    23 A                                                  
 -- Virtual --                   
  0.094   0.096   0.111   0.113   0.124   0.135   0.141   0.147
 24 A    22 B    23 B    25 A    26 A    24 B    25 B    26 B                  
  0.158   0.164   0.169   0.174   0.178   0.182   0.186   0.192
 27 A    28 A    29 A    27 B    28 B    30 A    29 B    31 A                  
  0.198   0.204   0.209   0.211   0.219   0.221   0.229   0.230
 30 B    32 A    31 B    33 A    34 A    32 B    35 A    33 B                  
  0.235   0.236   0.241   0.244   0.250   0.254   0.265   0.267
 34 B    36 A    37 A    35 B    36 B    37 B    38 A    39 A                  
  0.270   0.283   0.285   0.292   0.297   0.300   0.307   0.317
 38 B    40 A    39 B    41 A    40 B    42 A    43 A    41 B                  
  0.321   0.328   0.334   0.338   0.340   0.343   0.353   0.375
 42 B    44 A    43 B    45 A    44 B    46 A    45 B    46 B                  
  0.381   0.386   0.399   0.404   0.412   0.424   0.424   0.452
 47 A    47 B    48 A    49 A    48 B    49 B    50 A    50 B                  
  0.453   0.481   0.484   0.484   0.506   0.544   0.554   0.597
 51 A    52 A    51 B    53 A    52 B    54 A    53 B    54 B                  
  0.610   0.660   0.665   0.689   0.706   0.709   0.733   0.752
 55 A    55 B    56 A    57 A    56 B    57 B    58 A    59 A                  
  0.773   0.792   0.800   0.803   0.815   0.822   0.827   0.852
 58 B    60 A    59 B    60 B    61 A    61 B    62 A    63 A                  
  0.865   0.877   0.886   0.897   0.901   0.925   0.931   0.980
 62 B    64 A    63 B    64 B    65 A    66 A    65 B    66 B                  
  0.981   0.982   1.008   1.013   1.068   1.086   1.099   1.105
 67 B    67 A    68 A    69 A    68 B    70 A    69 B    71 A                  
  1.106   1.112   1.121   1.129   1.139   1.140   1.170   1.178
 72 A    70 B    71 B    72 B    73 B    73 A    74 B    74 A                  
  1.190   1.209   1.248   1.255   1.263   1.288   1.304   1.323
 75 A    76 A    77 A    75 B    76 B    77 B    78 A    79 A                  
  1.329   1.363   1.404   1.410   1.475   1.500   1.507   1.512
 78 B    80 A    79 B    81 A    80 B    82 A    81 B    82 B                  
  1.519   1.532   1.631   1.633   1.659   1.689   1.762   1.834
 83 A    84 A    85 A    83 B    84 B    85 B    86 A    87 A                  
  1.843   1.880   1.985   2.005   2.019   2.048   2.057   2.082
 86 B    88 A    89 A    87 B    90 A    88 B    91 A    89 B                  
  2.103   2.107   2.164   2.192   2.208   2.225   2.269   2.300
 92 A    90 B    93 A    91 B    94 A    92 B    93 B    95 A                  
  2.315   2.321   2.365   2.388   2.420   2.497   2.513   2.516
 96 A    94 B    97 A    95 B    96 B    98 A    97 B    99 A                  
  2.562   2.604   2.609   2.614   2.644   2.667   2.684   2.688
 98 B   100 A    99 B   101 A   100 B   102 A   103 A   101 B                  
  2.719   2.739   2.767   2.825   2.839   2.873   2.898   3.017
102 B   104 A   103 B   105 A   106 A   104 B   105 B   107 A                  
  3.024   3.074   3.115   3.295   3.362   3.414   3.421   3.555
106 B   108 A   107 B   108 B   109 A   109 B   110 A   111 A                  
  3.579   3.866   3.889   4.131   4.140   4.410   4.456   4.465
110 B   112 A   111 B   112 B   113 A   114 A   113 B   115 A                  
  4.476   4.576   4.681   4.814   4.870
114 B   116 A   115 B   117 A   116 B                                          
 
 Beta MOs, Unrestricted
 -- Occupied --                  
-88.750 -88.750 -10.063 -10.063 -10.054 -10.054 -10.050 -10.050
  1 A     1 B     2 A     2 B     3 B     3 A     4 A     4 B                  
-10.031 -10.031  -7.809  -7.809  -5.774  -5.774  -5.771  -5.771
  5 B     5 A     6 A     6 B     7 A     7 B     8 B     8 A                  
 -5.765  -5.765  -0.720  -0.699  -0.601  -0.579  -0.567  -0.532
  9 B     9 A    10 A    10 B    11 A    11 B    12 A    12 B                  
 -0.441  -0.415  -0.387  -0.367  -0.362  -0.314  -0.259  -0.254
 13 A    13 B    14 A    14 B    15 A    15 B    16 B    16 A                  
 -0.239  -0.239  -0.231  -0.210  -0.200  -0.192  -0.174  -0.111
 17 B    17 A    18 A    19 A    18 B    19 B    20 A    21 A                  
 -0.100  -0.093  -0.033
 20 B    22 A    21 B                                                          
 -- Virtual --                   
  0.094   0.096   0.101   0.110   0.113   0.123   0.135   0.146
 23 A    22 B    24 A    23 B    25 A    26 A    24 B    25 B                  
  0.154   0.157   0.165   0.170   0.175   0.178   0.187   0.187
 26 B    27 A    28 A    29 A    27 B    28 B    29 B    30 A                  
  0.193   0.198   0.204   0.213   0.214   0.222   0.222   0.230
 31 A    30 B    32 A    33 A    31 B    34 A    32 B    33 B                  
  0.231   0.236   0.237   0.241   0.244   0.253   0.257   0.265
 35 A    34 B    36 A    37 A    35 B    36 B    37 B    38 A                  
  0.267   0.271   0.283   0.286   0.292   0.301   0.301   0.308
 39 A    38 B    40 A    39 B    41 A    40 B    42 A    43 A                  
  0.320   0.322   0.328   0.334   0.340   0.340   0.344   0.353
 41 B    42 B    44 A    43 B    45 A    44 B    46 A    45 B                  
  0.375   0.381   0.387   0.399   0.406   0.412   0.425   0.427
 46 B    47 A    47 B    48 A    49 A    48 B    50 A    49 B                  
  0.454   0.454   0.483   0.484   0.486   0.507   0.546   0.557
 51 A    50 B    52 A    51 B    53 A    52 B    54 A    53 B                  
  0.598   0.611   0.662   0.668   0.691   0.708   0.711   0.735
 54 B    55 A    55 B    56 A    57 A    56 B    57 B    58 A                  
  0.753   0.775   0.798   0.803   0.814   0.820   0.827   0.833
 59 A    58 B    60 A    59 B    60 B    61 A    61 B    62 A                  
  0.856   0.870   0.877   0.887   0.902   0.909   0.927   0.933
 63 A    62 B    64 A    63 B    64 B    65 A    66 A    65 B                  
  0.981   0.989   0.989   1.013   1.016   1.069   1.087   1.102
 66 B    67 B    67 A    68 A    69 A    68 B    70 A    69 B                  
  1.105   1.109   1.114   1.123   1.130   1.140   1.141   1.172
 71 A    72 A    70 B    71 B    72 B    73 B    73 A    74 B                  
  1.180   1.192   1.211   1.252   1.257   1.266   1.291   1.307
 74 A    75 A    76 A    77 A    75 B    76 B    77 B    78 A                  
  1.327   1.330   1.365   1.406   1.416   1.478   1.503   1.510
 79 A    78 B    80 A    79 B    81 A    80 B    82 A    81 B                  
  1.518   1.523   1.536   1.632   1.635   1.665   1.691   1.765
 82 B    83 A    84 A    85 A    83 B    84 B    85 B    86 A                  
  1.844   1.853   1.888   1.988   2.007   2.025   2.049   2.058
 87 A    86 B    88 A    89 A    87 B    90 A    88 B    91 A                  
  2.086   2.105   2.111   2.167   2.193   2.211   2.232   2.275
 89 B    92 A    90 B    93 A    91 B    94 A    92 B    93 B                  
  2.310   2.320   2.326   2.369   2.396   2.425   2.502   2.515
 95 A    96 A    94 B    97 A    95 B    96 B    98 A    97 B                  
  2.517   2.564   2.610   2.614   2.616   2.646   2.670   2.686
 99 A    98 B   100 A    99 B   101 A   100 B   102 A   103 A                  
  2.690   2.725   2.742   2.770   2.827   2.842   2.878   2.900
101 B   102 B   104 A   103 B   105 A   106 A   104 B   105 B                  
  3.019   3.027   3.075   3.116   3.296   3.363   3.414   3.421
107 A   106 B   108 A   107 B   108 B   109 A   109 B   110 A                  
  3.556   3.580   3.867   3.890   4.132   4.142   4.414   4.460
111 A   110 B   112 A   111 B   112 B   113 A   114 A   113 B                  
  4.466   4.479   4.582   4.686   4.817   4.873
115 A   114 B   116 A   115 B   117 A   116 B                                  
 --------------------------------------------------------------
 
          Ground-State Mulliken Net Atomic Charges

     Atom                 Charge (a.u.)    Spin (a.u.)
  --------------------------------------------------------
      1 S                    -0.299854       0.100598
      2 C                    -0.101108       0.243733
      3 C                    -0.338657      -0.077823
      4 C                     0.198377       0.267240
      5 C                    -0.268714      -0.018588
      6 H                     0.088745      -0.005350
      7 C                    -0.268714      -0.018588
      8 S                    -0.299854       0.100598
      9 C                     0.198377       0.267240
     10 C                    -0.101108       0.243733
     11 C                    -0.338657      -0.077823
     12 H                     0.073531       0.004037
     13 H                     0.147681      -0.013847
     14 H                     0.073531       0.004037
     15 H                     0.147681      -0.013847
     16 H                     0.088745      -0.005350
  --------------------------------------------------------
  Sum of atomic charges =    -1.000000
  Sum of spin   charges =     1.000000

 -----------------------------------------------------------------
                    Cartesian Multipole Moments
 -----------------------------------------------------------------
    Charge (ESU x 10^10)
                -4.8032
    Dipole Moment (Debye)
         X      -0.0000      Y      -0.0000      Z       0.2347
       Tot       0.2347
    Quadrupole Moments (Debye-Ang)
        XX     -99.6075     XY       0.8303     YY     -83.8936
        XZ      -0.0000     YZ      -0.0000     ZZ     -87.2190
    Octopole Moments (Debye-Ang^2)
       XXX      -0.0000    XXY      -0.0000    XYY      -0.0000
       YYY      -0.0000    XXZ       2.6019    XYZ       1.8997
       YYZ       1.3851    XZZ      -0.0000    YZZ      -0.0000
       ZZZ      -2.7977
    Hexadecapole Moments (Debye-Ang^3)
      XXXX   -2496.6366   XXXY     -32.5968   XXYY    -518.9418
      XYYY       9.7685   YYYY    -687.4121   XXXZ      -0.0000
      XXYZ      -0.0000   XYYZ      -0.0000   YYYZ      -0.0000
      XXZZ    -493.6864   XYZZ      -6.6394   YYZZ    -157.5248
      XZZZ      -0.0000   YZZZ      -0.0000   ZZZZ    -153.4541
 -----------------------------------------------------------------
Archival summary:
1\1\nid01048\OPT\ProcedureUnspecified\BasisUnspecified\286(1-,2)\WedSep700:06:492016WedSep700:06:492016\0\\#,OPT,ProcedureUnspecified,BasisUnspecified,\\-1,2\S\C,1,1.76757\H,2,1.08117,1,120.235\C,2,1.38275,1,110.61,3,178.288,0\H,4,1.08751,2,122.447,1,-179.221,0\C,4,1.41147,2,114.556,1,-0.356558,0\H,6,1.08492,4,123.889,2,-177.368,0\C,6,1.41378,4,114.033,2,0.783408,0\C,8,1.4094,6,130.336,4,-176.287,0\C,9,1.41378,8,130.336,6,160,0\H,10,1.08492,9,122.051,8,1.9025,0\C,10,1.41147,9,114.033,8,-176.287,0\H,12,1.08751,10,122.987,9,179.641,0\C,12,1.38275,10,114.556,9,0.783408,0\H,14,1.08117,12,129.128,10,177.736,0\S,14,1.76757,12,110.61,10,-0.356558,0\\\@

 Total job time:  88.86s(wall), 98.99s(cpu) 
 Wed Sep  7 00:06:49 2016

        *************************************************************
        *                                                           *
        *  Thank you very much for using Q-Chem.  Have a nice day.  *
        *                                                           *
        *************************************************************


0 sent ACK to 0 
now end server 0 ... 
