srun -N 1 --ntasks-per-node 16 --nodelist nid01048 /global/project/projectdirs/jcesr/qchem/qc44/cnl_qc441/dist/exe/qcprog.cori.exe .pt_charged_dft_130.0.in.12266.qcin.1 /dev/shm/eg_qchem/qchem12266/
Process 1 of 16 is on nid01048 - thread support 0
Process 4 of 16 is on nid01048 - thread support 0
Process 5 of 16 is on nid01048 - thread support 0
Process 0 of 16 is on nid01048 - thread support 0
initial socket setup ...start
Process 2 of 16 is on nid01048 - thread support 0
Process 3 of 16 is on nid01048 - thread support 0
Process 6 of 16 is on nid01048 - thread support 0
Process 15 of 16 is on nid01048 - thread support 0
initial socket setup ...done 
now start server 0 ... 
nid01048 10.128.4
Q-Chem Developer Version! Running on 10.128.4.*
                  Welcome to Q-Chem
     A Quantum Leap Into The Future Of Chemistry


 Q-Chem 4.4, Q-Chem, Inc., Pleasanton, CA (2016)

 Y. Shao,  Z. Gan,  E. Epifanovsky,  A. T. B. Gilbert,  M. Wormit,  
 J. Kussmann,  A. W. Lange,  A. Behn,  J. Deng,  X. Feng,  D. Ghosh,  
 M. Goldey,  P. R. Horn,  L. D. Jacobson,  I. Kaliman,  F.Rob,  
 R. Z. Khaliullin,  T. Kus,  A. Landau,  J. Liu,  E. I. Proynov,  Y. M. Rhee,  
 R. M. Richard,  M. A. Rohrdanz,  R. P. Steele,  E. J. Sundstrom,  
 H. L. Woodcock III,  P. M. Zimmerman,  D. Zuev,  B. Albrecht,  E. Alguire,  
 B. Austin,  S. A. Baeppler,  G. J. O. Beran,  Y. A. Bernard,  E. Berquist,  
 K. Brandhorst,  K. B. Bravaya,  S. T. Brown,  D. Casanova,  C.-M. Chang,  
 Y. Chen,  S. H. Chien,  K. D. Closser,  M. P. Coons,  D. L. Crittenden,  
 S. Dasgupta,  M. Diedenhofen,  R. A. DiStasio Jr.,  H. Do,  A. D. Dutoi,  
 R. G. Edgar,  P.-T. Fang,  S. Fatehi,  Q. Feng,  L. Fusti-Molnar,  
 A. Ghysels,  A. Golubeva-Zadorozhnaya,  J. Gomes,  A. Gunina,  
 M. W. D. Hanson-Heine,  P. H. P. Harbach,  A. W. Hauser,  E. G. Hohenstein,  
 Z. C. Holden,  K. Hui,  T.-C. Jagau,  H. Ji,  B. Kaduk,  K. Khistyaev,  
 Jaehoon Kim,  Jihan Kim,  R. A. King,  P. Klunzinger,  D. Kosenkov,  
 T. Kowalczyk,  C. M. Krauter,  A. Kunitsa,  K. U. Lao,  A. Laurent,  
 K. V. Lawler,  D. Lefrancois,  S. Lehtola,  S. V. Levchenko,  C. Y. Lin,  
 Y.-S. Lin,  F. Liu,  E. Livshits,  R. C. Lochan,  A. Luenser,  P. Manohar,  
 S. F. Manzer,  S.-P. Mao,  Y. Mao,  N. Mardirossian,  A. V. Marenich,  
 L. A. Martinez-Martinez,  S. A. Maurer,  N. J. Mayhall,  J.-M. Mewes,  
 A. F. Morrison,  K. Nanda,  C. M. Oana,  R. Olivares-Amaya,  D. P. O'Neill,  
 J. A. Parkhill,  T. M. Perrine,  R. Peverati,  P. A. Pieniazek,  F. Plasser,  
 A. Prociuk,  D. R. Rehn,  E. Rosta,  N. J. Russ,  N. Sergueev,  
 S. M. Sharada,  S. Sharma,  D. W. Small,  A. Sodt,  T. Stauch,  T. Stein,  
 D. Stuck,  Y.-C. Su,  A. J. W. Thom,  T. Tsuchimochi,  L. Vogt,  O. Vydrov,  
 T. Wang,  M. A. Watson,  J. Wenzel,  A. White,  C. F. Williams,  
 V. Vanovschi,  S. Yeganeh,  S. R. Yost,  Z.-Q. You,  I. Y. Zhang,  X. Zhang,  
 Y. Zhao,  B. R. Brooks,  G. K. L. Chan,  D. M. Chipman,  C. J. Cramer,  
 W. A. Goddard III,  M. S. Gordon,  W. J. Hehre,  A. Klamt,  
 H. F. Schaefer III,  M. W. Schmidt,  C. D. Sherrill,  D. G. Truhlar,  
 A. Warshel,  X. Xu,  A. Aspuru-Guzik,  R. Baer,  A. T. Bell,  N. A. Besley,  
 J.-D. Chai,  A. Dreuw,  B. D. Dunietz,  T. R. Furlani,  S. R. Gwaltney,  
 C.-P. Hsu,  Y. Jung,  J. Kong,  D. S. Lambrecht,  W. Liang,  C. Ochsenfeld,  
 V. A. Rassolov,  L. V. Slipchenko,  J. E. Subotnik,  T. Van Voorhis,  
 J. M. Herbert,  A. I. Krylov,  P. M. W. Gill,  M. Head-Gordon

 Contributors to earlier versions of Q-Chem not listed above: 
 R. D. Adamson,  J. Baker,  E. F. C. Byrd,  A. K. Chakraborty,  C.-L. Cheng,  
 H. Dachsel,  R. J. Doerksen,  G. Hawkins,  A. Heyden,  S. Hirata,  
 G. Kedziora,  F. J. Keil,  C. Kelley,  P. P. Korambath,  W. Kurlancheek,  
 A. M. Lee,  M. S. Lee,  D. Liotard,  I. Lotan,  P. E. Maslen,  N. Nair,  
 D. Neuhauser,  R. Olson,  B. Peters,  J. Ritchie,  N. E. Schultz,  
 N. Shenvi,  A. C. Simmonett,  K. S. Thanthiriwatte,  Q. Wu,  W. Zhang

 Please cite Q-Chem as follows:
 Y. Shao et al., Mol. Phys. 113, 184-215 (2015)
 DOI: 10.1080/00268976.2014.952696

 Q-Chem 4.4.1 for Intel X86 EM64T Linux

 Parts of Q-Chem use Armadillo 5.200.1 (Boston Tea Smuggler).
 http://arma.sourceforge.net/

 Q-Chem begins on Tue Sep  6 22:54:35 2016  

Host: nid01047
0

     Scratch files written to /dev/shm/eg_qchem/qchem12266.0//
 Parallel job on  16  processors

Checking the input file for inconsistencies... 	...done.

--------------------------------------------------------------
User input:
--------------------------------------------------------------
$comment
<SCF Fix Strategy>{
    "current_method_id": 6, 
    "methods": [
        "increase_iter", 
        "diis_gdm", 
        "gwh", 
        "rca", 
        "gdm", 
        "core+gdm", 
        "fon"
    ], 
    "version": 2.0
}</SCF Fix Strategy>
$end


$molecule
 -1  2
 S           1.83794975       -1.27576249       -0.14871336
 C           3.23937819       -0.19806434       -0.14823333
 C           2.83626844        1.12431397       -0.14890172
 C           1.43724334        1.31134696       -0.14931220
 C           0.69606563        0.10654716       -0.14908151
 H           0.95807640        2.28459073       -0.14860036
 C          -0.69610330       -0.10652413       -0.14907621
 S          -1.75483631        0.73252013        1.02980825
 C          -1.49555828       -0.93057113       -0.97533603
 C          -3.20228179       -0.04452693        0.37671209
 C          -2.87312387       -0.88374323       -0.67140689
 H          -3.61945706       -1.45900954       -1.21437916
 H           4.24016475       -0.60708034       -0.14954918
 H           3.54430111        1.94981573       -0.14910914
 H          -4.17321405        0.16943683        0.80142335
 H          -1.07216970       -1.53938872       -1.76709871
$end


$rem
          jobtype = opt
         exchange = b3lyp
            basis = 6-31++g**
     fon_e_thresh = 6
         fon_norb = 9
        fon_t_end = 300
      fon_t_start = 300
   max_scf_cycles = 200
       mem_static = 100
        mem_total = 1500
      occupations = 2
    scf_algorithm = diis
  scf_convergence = 7
        scf_guess = sad
           thresh = 14
$end


$opt
CONSTRAINT
tors 4 5 7 9 130.0
ENDCONSTRAINT
$end

--------------------------------------------------------------
 Atom   8: ( -1.8156800566,  1.1339585499,  0.4939656835)
         ->( -1.8156800281,  1.1339585287,  0.4939657401)
 Atom  10: ( -3.2295736456,  0.1355918612,  0.1339601012)
         ->( -3.2295736706,  0.1355919813,  0.1339598926)
 Atom  11: ( -2.8463754550, -1.0600769789, -0.4445876515)
         ->( -2.8463754694, -1.0600769856, -0.4445875748)
 Atom   9: ( -1.4530545006, -1.2108228238, -0.6124719494)
         ->( -1.4530545202, -1.2108228546, -0.6124719207)
 Atom   7: ( -0.6961284597, -0.1062477601, -0.1565510014)
         ->( -0.6961284688, -0.1062477672, -0.1565510524)
 Atom  16: ( -0.9888552861, -2.0888343463, -1.0488430582)
         ->( -0.9888553127, -2.0888343526, -1.0488430978)
 Atom  14: (  3.5647738932,  1.8196064420, -0.7442243053)
         ->(  3.5647738554,  1.8196063789, -0.7442245529)
 Atom  15: ( -4.2224264142,  0.4941486596,  0.3675195169)
         ->( -4.2224263968,  0.4941486137,  0.3675196574)
 ----------------------------------------------------------------
             Standard Nuclear Orientation (Angstroms)
    I     Atom           X                Y                Z
 ----------------------------------------------------------------
    1      S       1.8156800281    -1.1339585287     0.4939657401
    2      C       3.2295736706    -0.1355919813     0.1339598926
    3      C       2.8463754694     1.0600769856    -0.4445875748
    4      C       1.4530545202     1.2108228546    -0.6124719207
    5      C       0.6961284688     0.1062477672    -0.1565510524
    6      H       0.9888553127     2.0888343526    -1.0488430978
    7      C      -0.6961284688    -0.1062477672    -0.1565510524
    8      S      -1.8156800281     1.1339585287     0.4939657401
    9      C      -1.4530545202    -1.2108228546    -0.6124719207
   10      C      -3.2295736706     0.1355919813     0.1339598926
   11      C      -2.8463754694    -1.0600769856    -0.4445875748
   12      H      -3.5647738554    -1.8196063789    -0.7442245529
   13      H       4.2224263968    -0.4941486137     0.3675196574
   14      H       3.5647738554     1.8196063789    -0.7442245529
   15      H      -4.2224263968     0.4941486137     0.3675196574
   16      H      -0.9888553127    -2.0888343526    -1.0488430978
 ----------------------------------------------------------------
 Molecular Point Group                 C2    NOp =  2
 Largest Abelian Subgroup              C2    NOp =  2
 Nuclear Repulsion Energy =   622.9299548969 hartrees
 There are       44 alpha and       43 beta electrons
 Requested basis set is 6-31++G(d,p)
 There are 76 shells and 234 basis functions

 Total QAlloc Memory Limit   1500 MB
 Mega-Array Size        98 MB
 MEM_STATIC part       100 MB
 A cutoff of  1.0D-14 yielded   2600 shell pairs
 There are     25466 function pairs
 
 -------------------------------------------------------
 OpenMP Integral Computing Module                       
 Release: version 1.0, May 2013, Q-Chem Inc. Pittsburgh 
 -------------------------------------------------------
 Integral Job Info:
 Integral job number is                      11
 Integral operator is                         1
 short-range coefficients                     0
 long-range coefficients              100000000
 Omega coefficients                           0
 if combine SR and LR in K                    0
 Integral screening is                        0
 Integral computing path is                   2
 max size of driver memory is            800000
 size of driver memory is                593474
 size of scratch memory is             15166112
 max col of scratch BK array               1296
 max len of scratch array in speh3          155
 max len of scratch index in speh4           18
 max int batch size is                      520
 min int batch size is                       52
 fixed nKL is                                52
 max L of basis functions is                  2
 order of int derivative is                   0
 number of shells is                         76
 number of basis is                         234
 number of cartesian basis is               234
 number of contracted shell pairs          2600
 number of primitive shell pairs           8602
 maxK2 (contraction) of shell pair           36
 max number of K2 of shell pair               1
 max number of CS2 of shell pair            258
 max number of PS2 of shell pair           1524
 mem total for path MDJ                   51576
 -------------------------------------------------------
 Smallest overlap matrix eigenvalue = 9.25E-07
 Linear dependence detected in AO basis
 Number of orthogonalized atomic orbitals = 233
 Maximum deviation from orthogonality = 5.224E-11

 Scale SEOQF with 1.000000e-01/1.000000e-01/1.000000e-01

 Standard Electronic Orientation quadrupole field applied
 Nucleus-field energy     =     0.0000000194 hartrees
 Guess from superposition of atomic densities
 Warning:  Energy on first SCF cycle will be non-variational

-------------------------------------------------
Fractional occupation number algorithm turned on.
-------------------------------------------------

Initial Temperature =    300.000 K
Final Temperature =    300.000 K
-------------------------------------------------

 An unrestricted hybrid HF-DFT SCF calculation will be
 performed using Pulay DIIS extrapolation
 Exchange:     0.2000 Hartree-Fock + 0.0800 Slater + 0.7200 B88
 Correlation:  0.1900 VWN1RPA + 0.8100 LYP
 Using SG-1 standard quadrature grid
 SCF converges when DIIS error is below 1.0E-07
 Inaccurate integrated density:
   Number of electrons =    87
   Numerical integral  =    86.000275062488
   Relative error      =    -1.1491091236 %

---- Fractional Occupation Number Information ----
Temperature =    300.000 K
Fermi level =  -0.284998 Hartree
HOMO-LUMO gap =   0.027128 Hartree
Number of active orbitals = 18
Number of active electrons = 9
EMax =   4.29e-02
thresh =   1.00e-06
Generating Pseudo-Fermi distribution of occupation numbers.
--
# Rescaled active electrons =      9.000
Writing occupation numbers to disk ...
---- Fractional Occupation Number Information End ----


---- Fractional Occupation Number Information ----
Temperature =    300.000 K
Fermi level =  -0.299401 Hartree
HOMO-LUMO gap =   0.001678 Hartree
Number of active orbitals = 18
Number of active electrons = 9
EMax =   4.29e-02
thresh =   1.00e-06
Generating Pseudo-Fermi distribution of occupation numbers.
--
# Rescaled active electrons =      9.000
Writing occupation numbers to disk ...
---- Fractional Occupation Number Information End ----

 ---------------------------------------
  Cycle       Energy         DIIS Error
 ---------------------------------------
    1   -1106.9952511989      4.29E-02

---- Fractional Occupation Number Information ----
Temperature =    300.000 K
Fermi level =  -0.287594 Hartree
HOMO-LUMO gap =   0.030081 Hartree
Number of active orbitals = 18
Number of active electrons = 9
EMax =   2.41e-01
thresh =   1.00e-06
Generating Pseudo-Fermi distribution of occupation numbers.
--
# Rescaled active electrons =      9.000
Writing occupation numbers to disk ...
---- Fractional Occupation Number Information End ----


---- Fractional Occupation Number Information ----
Temperature =    300.000 K
Fermi level =  -0.302111 Hartree
HOMO-LUMO gap =   0.001958 Hartree
Number of active orbitals = 18
Number of active electrons = 9
EMax =   2.41e-01
thresh =   1.00e-06
Generating Pseudo-Fermi distribution of occupation numbers.
--
# Rescaled active electrons =      9.000
Writing occupation numbers to disk ...
---- Fractional Occupation Number Information End ----

    2   -1072.5506881427      2.41E-01

---- Fractional Occupation Number Information ----
Temperature =    300.000 K
Fermi level =  -0.289260 Hartree
HOMO-LUMO gap =   0.033066 Hartree
Number of active orbitals = 18
Number of active electrons = 9
EMax =   1.94e-01
thresh =   1.00e-06
Generating Pseudo-Fermi distribution of occupation numbers.
--
# Rescaled active electrons =      9.000
Writing occupation numbers to disk ...
---- Fractional Occupation Number Information End ----


---- Fractional Occupation Number Information ----
Temperature =    300.000 K
Fermi level =  -0.303471 Hartree
HOMO-LUMO gap =   0.002655 Hartree
Number of active orbitals = 18
Number of active electrons = 9
EMax =   1.94e-01
thresh =   1.00e-06
Generating Pseudo-Fermi distribution of occupation numbers.
--
# Rescaled active electrons =      9.000
Writing occupation numbers to disk ...
---- Fractional Occupation Number Information End ----

    3   -1081.4446918533      1.94E-01

---- Fractional Occupation Number Information ----
Temperature =    300.000 K
Fermi level =  -0.288182 Hartree
HOMO-LUMO gap =   0.033579 Hartree
Number of active orbitals = 18
Number of active electrons = 9
EMax =   1.69e-01
thresh =   1.00e-06
Generating Pseudo-Fermi distribution of occupation numbers.
--
# Rescaled active electrons =      9.000
Writing occupation numbers to disk ...
---- Fractional Occupation Number Information End ----


---- Fractional Occupation Number Information ----
Temperature =    300.000 K
Fermi level =  -0.302288 Hartree
HOMO-LUMO gap =   0.003451 Hartree
Number of active orbitals = 18
Number of active electrons = 9
EMax =   1.69e-01
thresh =   1.00e-06
Generating Pseudo-Fermi distribution of occupation numbers.
--
# Rescaled active electrons =      9.000
Writing occupation numbers to disk ...
---- Fractional Occupation Number Information End ----

    4   -1084.8958816086      1.69E-01

---- Fractional Occupation Number Information ----
Temperature =    300.000 K
Fermi level =  -0.318139 Hartree
HOMO-LUMO gap =   0.011109 Hartree
Number of active orbitals = 18
Number of active electrons = 9
EMax =   1.82e-01
thresh =   1.00e-06
Generating Pseudo-Fermi distribution of occupation numbers.
--
# Rescaled active electrons =      9.000
Writing occupation numbers to disk ...
---- Fractional Occupation Number Information End ----


---- Fractional Occupation Number Information ----
Temperature =    300.000 K
Fermi level =  -0.357046 Hartree
HOMO-LUMO gap =   0.068021 Hartree
Number of active orbitals = 18
Number of active electrons = 9
EMax =   1.82e-01
thresh =   1.00e-06
Generating Pseudo-Fermi distribution of occupation numbers.
--
# Rescaled active electrons =      9.000
Writing occupation numbers to disk ...
---- Fractional Occupation Number Information End ----

    5   -1084.2773824893      1.82E-01

---- Fractional Occupation Number Information ----
Temperature =    300.000 K
Fermi level =  -0.590141 Hartree
HOMO-LUMO gap =   0.007378 Hartree
Number of active orbitals = 18
Number of active electrons = 9
EMax =   4.87e-02
thresh =   1.00e-06
Generating Pseudo-Fermi distribution of occupation numbers.
--
# Rescaled active electrons =      9.000
Writing occupation numbers to disk ...
---- Fractional Occupation Number Information End ----


---- Fractional Occupation Number Information ----
Temperature =    300.000 K
Fermi level =  -0.642910 Hartree
HOMO-LUMO gap =   0.037058 Hartree
Number of active orbitals = 18
Number of active electrons = 9
EMax =   4.87e-02
thresh =   1.00e-06
Generating Pseudo-Fermi distribution of occupation numbers.
--
# Rescaled active electrons =      9.000
Writing occupation numbers to disk ...
---- Fractional Occupation Number Information End ----

    6   -1111.4115797413      4.87E-02

---- Fractional Occupation Number Information ----
Temperature =    300.000 K
Fermi level =  -0.571033 Hartree
HOMO-LUMO gap =   0.021943 Hartree
Number of active orbitals = 18
Number of active electrons = 9
EMax =   4.67e+00
thresh =   1.00e-06
Generating Pseudo-Fermi distribution of occupation numbers.
--
# Rescaled active electrons =      9.000
Writing occupation numbers to disk ...
---- Fractional Occupation Number Information End ----


---- Fractional Occupation Number Information ----
Temperature =    300.000 K
Fermi level =  -0.628492 Hartree
HOMO-LUMO gap =   0.011750 Hartree
Number of active orbitals = 18
Number of active electrons = 9
EMax =   4.67e+00
thresh =   1.00e-06
Generating Pseudo-Fermi distribution of occupation numbers.
--
# Rescaled active electrons =      9.000
Writing occupation numbers to disk ...
---- Fractional Occupation Number Information End ----

    7    1193.2830135961      4.67E+00

---- Fractional Occupation Number Information ----
Temperature =    300.000 K
Fermi level =  -0.575836 Hartree
HOMO-LUMO gap =   0.019748 Hartree
Number of active orbitals = 18
Number of active electrons = 9
EMax =   1.28e+00
thresh =   1.00e-06
Generating Pseudo-Fermi distribution of occupation numbers.
--
# Rescaled active electrons =      9.000
Writing occupation numbers to disk ...
---- Fractional Occupation Number Information End ----


---- Fractional Occupation Number Information ----
Temperature =    300.000 K
Fermi level =  -0.633895 Hartree
HOMO-LUMO gap =   0.008867 Hartree
Number of active orbitals = 18
Number of active electrons = 9
EMax =   1.28e+00
thresh =   1.00e-06
Generating Pseudo-Fermi distribution of occupation numbers.
--
# Rescaled active electrons =      9.000
Writing occupation numbers to disk ...
---- Fractional Occupation Number Information End ----

    8    -637.6570714434      1.28E+00

---- Fractional Occupation Number Information ----
Temperature =    300.000 K
Fermi level =  -0.575432 Hartree
HOMO-LUMO gap =   0.002897 Hartree
Number of active orbitals = 18
Number of active electrons = 9
EMax =   3.02e+00
thresh =   1.00e-06
Generating Pseudo-Fermi distribution of occupation numbers.
--
# Rescaled active electrons =      9.000
Writing occupation numbers to disk ...
---- Fractional Occupation Number Information End ----


---- Fractional Occupation Number Information ----
Temperature =    300.000 K
Fermi level =  -0.620241 Hartree
HOMO-LUMO gap =   0.083673 Hartree
Number of active orbitals = 18
Number of active electrons = 9
EMax =   3.02e+00
thresh =   1.00e-06
Generating Pseudo-Fermi distribution of occupation numbers.
--
# Rescaled active electrons =      9.000
Writing occupation numbers to disk ...
---- Fractional Occupation Number Information End ----

    9     -12.1355323202      3.02E+00

---- Fractional Occupation Number Information ----
Temperature =    300.000 K
Fermi level =  -0.620546 Hartree
HOMO-LUMO gap =   0.025278 Hartree
Number of active orbitals = 18
Number of active electrons = 9
EMax =   1.26e-01
thresh =   1.00e-06
Generating Pseudo-Fermi distribution of occupation numbers.
--
# Rescaled active electrons =      9.000
Writing occupation numbers to disk ...
---- Fractional Occupation Number Information End ----


---- Fractional Occupation Number Information ----
Temperature =    300.000 K
Fermi level =  -0.644687 Hartree
HOMO-LUMO gap =   0.085032 Hartree
Number of active orbitals = 18
Number of active electrons = 9
EMax =   1.26e-01
thresh =   1.00e-06
Generating Pseudo-Fermi distribution of occupation numbers.
--
# Rescaled active electrons =      9.000
Writing occupation numbers to disk ...
---- Fractional Occupation Number Information End ----

   10   -1084.9491927121      1.26E-01

---- Fractional Occupation Number Information ----
Temperature =    300.000 K
Fermi level =  -0.666376 Hartree
HOMO-LUMO gap =   0.029066 Hartree
Number of active orbitals = 18
Number of active electrons = 9
EMax =   6.18e-02
thresh =   1.00e-06
Generating Pseudo-Fermi distribution of occupation numbers.
--
# Rescaled active electrons =      9.000
Writing occupation numbers to disk ...
---- Fractional Occupation Number Information End ----


---- Fractional Occupation Number Information ----
Temperature =    300.000 K
Fermi level =  -0.698319 Hartree
HOMO-LUMO gap =   0.107374 Hartree
Number of active orbitals = 18
Number of active electrons = 9
EMax =   6.18e-02
thresh =   1.00e-06
Generating Pseudo-Fermi distribution of occupation numbers.
--
# Rescaled active electrons =      9.000
Writing occupation numbers to disk ...
---- Fractional Occupation Number Information End ----

   11   -1086.8444271922      6.18E-02

---- Fractional Occupation Number Information ----
Temperature =    300.000 K
Fermi level =  -0.643633 Hartree
HOMO-LUMO gap =   0.012261 Hartree
Number of active orbitals = 18
Number of active electrons = 9
EMax =   7.38e-02
thresh =   1.00e-06
Generating Pseudo-Fermi distribution of occupation numbers.
--
# Rescaled active electrons =      9.000
Writing occupation numbers to disk ...
---- Fractional Occupation Number Information End ----


---- Fractional Occupation Number Information ----
Temperature =    300.000 K
Fermi level =  -0.643461 Hartree
HOMO-LUMO gap =   0.009604 Hartree
Number of active orbitals = 18
Number of active electrons = 9
EMax =   7.38e-02
thresh =   1.00e-06
Generating Pseudo-Fermi distribution of occupation numbers.
--
# Rescaled active electrons =      9.000
Writing occupation numbers to disk ...
---- Fractional Occupation Number Information End ----

   12   -1082.0357262886      7.38E-02

---- Fractional Occupation Number Information ----
Temperature =    300.000 K
Fermi level =  -0.614125 Hartree
HOMO-LUMO gap =   0.022342 Hartree
Number of active orbitals = 18
Number of active electrons = 9
EMax =   7.46e-02
thresh =   1.00e-06
Generating Pseudo-Fermi distribution of occupation numbers.
--
# Rescaled active electrons =      9.000
Writing occupation numbers to disk ...
---- Fractional Occupation Number Information End ----


---- Fractional Occupation Number Information ----
Temperature =    300.000 K
Fermi level =  -0.614137 Hartree
HOMO-LUMO gap =   0.014383 Hartree
Number of active orbitals = 18
Number of active electrons = 9
EMax =   7.46e-02
thresh =   1.00e-06
Generating Pseudo-Fermi distribution of occupation numbers.
--
# Rescaled active electrons =      9.000
Writing occupation numbers to disk ...
---- Fractional Occupation Number Information End ----

   13   -1091.4833285566      7.46E-02

---- Fractional Occupation Number Information ----
Temperature =    300.000 K
Fermi level =  -0.583346 Hartree
HOMO-LUMO gap =   0.013246 Hartree
Number of active orbitals = 18
Number of active electrons = 9
EMax =   8.81e-02
thresh =   1.00e-06
Generating Pseudo-Fermi distribution of occupation numbers.
--
# Rescaled active electrons =      9.000
Writing occupation numbers to disk ...
---- Fractional Occupation Number Information End ----


---- Fractional Occupation Number Information ----
Temperature =    300.000 K
Fermi level =  -0.578435 Hartree
HOMO-LUMO gap =   0.012995 Hartree
Number of active orbitals = 18
Number of active electrons = 9
EMax =   8.81e-02
thresh =   1.00e-06
Generating Pseudo-Fermi distribution of occupation numbers.
--
# Rescaled active electrons =      9.000
Writing occupation numbers to disk ...
---- Fractional Occupation Number Information End ----

   14   -1088.1679241467      8.81E-02

---- Fractional Occupation Number Information ----
Temperature =    300.000 K
Fermi level =  -0.563625 Hartree
HOMO-LUMO gap =   0.052574 Hartree
Number of active orbitals = 18
Number of active electrons = 9
EMax =   6.16e-02
thresh =   1.00e-06
Generating Pseudo-Fermi distribution of occupation numbers.
--
# Rescaled active electrons =      9.000
Writing occupation numbers to disk ...
---- Fractional Occupation Number Information End ----


---- Fractional Occupation Number Information ----
Temperature =    300.000 K
Fermi level =  -0.557928 Hartree
HOMO-LUMO gap =   0.002379 Hartree
Number of active orbitals = 18
Number of active electrons = 9
EMax =   6.16e-02
thresh =   1.00e-06
Generating Pseudo-Fermi distribution of occupation numbers.
--
# Rescaled active electrons =      9.000
Writing occupation numbers to disk ...
---- Fractional Occupation Number Information End ----

   15   -1092.0237075318      6.16E-02

---- Fractional Occupation Number Information ----
Temperature =    300.000 K
Fermi level =  -0.589119 Hartree
HOMO-LUMO gap =   0.060911 Hartree
Number of active orbitals = 18
Number of active electrons = 9
EMax =   7.03e-02
thresh =   1.00e-06
Generating Pseudo-Fermi distribution of occupation numbers.
--
# Rescaled active electrons =      9.000
Writing occupation numbers to disk ...
---- Fractional Occupation Number Information End ----


---- Fractional Occupation Number Information ----
Temperature =    300.000 K
Fermi level =  -0.570571 Hartree
HOMO-LUMO gap =   0.003967 Hartree
Number of active orbitals = 18
Number of active electrons = 9
EMax =   7.03e-02
thresh =   1.00e-06
Generating Pseudo-Fermi distribution of occupation numbers.
--
# Rescaled active electrons =      9.000
Writing occupation numbers to disk ...
---- Fractional Occupation Number Information End ----

   16   -1100.8139485864      7.03E-02

---- Fractional Occupation Number Information ----
Temperature =    300.000 K
Fermi level =  -0.348868 Hartree
HOMO-LUMO gap =   0.055797 Hartree
Number of active orbitals = 18
Number of active electrons = 9
EMax =   1.38e-02
thresh =   1.00e-06
Generating Pseudo-Fermi distribution of occupation numbers.
--
# Rescaled active electrons =      9.000
Writing occupation numbers to disk ...
---- Fractional Occupation Number Information End ----


---- Fractional Occupation Number Information ----
Temperature =    300.000 K
Fermi level =  -0.343554 Hartree
HOMO-LUMO gap =   0.010886 Hartree
Number of active orbitals = 18
Number of active electrons = 9
EMax =   1.38e-02
thresh =   1.00e-06
Generating Pseudo-Fermi distribution of occupation numbers.
--
# Rescaled active electrons =      9.000
Writing occupation numbers to disk ...
---- Fractional Occupation Number Information End ----

   17   -1102.6391958846      1.38E-02

---- Fractional Occupation Number Information ----
Temperature =    300.000 K
Fermi level =  -0.371306 Hartree
HOMO-LUMO gap =   0.054885 Hartree
Number of active orbitals = 18
Number of active electrons = 9
EMax =   1.09e-02
thresh =   1.00e-06
Generating Pseudo-Fermi distribution of occupation numbers.
--
# Rescaled active electrons =      9.000
Writing occupation numbers to disk ...
---- Fractional Occupation Number Information End ----


---- Fractional Occupation Number Information ----
Temperature =    300.000 K
Fermi level =  -0.362146 Hartree
HOMO-LUMO gap =   0.005503 Hartree
Number of active orbitals = 18
Number of active electrons = 9
EMax =   1.09e-02
thresh =   1.00e-06
Generating Pseudo-Fermi distribution of occupation numbers.
--
# Rescaled active electrons =      9.000
Writing occupation numbers to disk ...
---- Fractional Occupation Number Information End ----

   18   -1103.1703813683      1.09E-02

---- Fractional Occupation Number Information ----
Temperature =    300.000 K
Fermi level =  -0.235522 Hartree
HOMO-LUMO gap =   0.125068 Hartree
Number of active orbitals = 18
Number of active electrons = 9
EMax =   8.37e-03
thresh =   1.00e-06
Generating Pseudo-Fermi distribution of occupation numbers.
--
# Rescaled active electrons =      9.000
Writing occupation numbers to disk ...
---- Fractional Occupation Number Information End ----


---- Fractional Occupation Number Information ----
Temperature =    300.000 K
Fermi level =  -0.318937 Hartree
HOMO-LUMO gap =   0.046436 Hartree
Number of active orbitals = 18
Number of active electrons = 9
EMax =   8.37e-03
thresh =   1.00e-06
Generating Pseudo-Fermi distribution of occupation numbers.
--
# Rescaled active electrons =      9.000
Writing occupation numbers to disk ...
---- Fractional Occupation Number Information End ----

   19   -1102.9126629012      8.37E-03

---- Fractional Occupation Number Information ----
Temperature =    300.000 K
Fermi level =  -0.151229 Hartree
HOMO-LUMO gap =   0.046862 Hartree
Number of active orbitals = 18
Number of active electrons = 9
EMax =   5.86e-03
thresh =   1.00e-06
Generating Pseudo-Fermi distribution of occupation numbers.
--
# Rescaled active electrons =      9.000
Writing occupation numbers to disk ...
---- Fractional Occupation Number Information End ----


---- Fractional Occupation Number Information ----
Temperature =    300.000 K
Fermi level =  -0.206368 Hartree
HOMO-LUMO gap =   0.072989 Hartree
Number of active orbitals = 18
Number of active electrons = 9
EMax =   5.86e-03
thresh =   1.00e-06
Generating Pseudo-Fermi distribution of occupation numbers.
--
# Rescaled active electrons =      9.000
Writing occupation numbers to disk ...
---- Fractional Occupation Number Information End ----

   20   -1103.6155560687      5.86E-03

---- Fractional Occupation Number Information ----
Temperature =    300.000 K
Fermi level =   0.055450 Hartree
HOMO-LUMO gap =   0.014715 Hartree
Number of active orbitals = 18
Number of active electrons = 9
EMax =   3.23e-03
thresh =   1.00e-06
Generating Pseudo-Fermi distribution of occupation numbers.
--
# Rescaled active electrons =      9.000
Writing occupation numbers to disk ...
---- Fractional Occupation Number Information End ----


---- Fractional Occupation Number Information ----
Temperature =    300.000 K
Fermi level =  -0.031991 Hartree
HOMO-LUMO gap =   0.151357 Hartree
Number of active orbitals = 18
Number of active electrons = 9
EMax =   3.23e-03
thresh =   1.00e-06
Generating Pseudo-Fermi distribution of occupation numbers.
--
# Rescaled active electrons =      9.000
Writing occupation numbers to disk ...
---- Fractional Occupation Number Information End ----

   21   -1104.4528501837      3.23E-03

---- Fractional Occupation Number Information ----
Temperature =    300.000 K
Fermi level =   0.075625 Hartree
HOMO-LUMO gap =   0.023732 Hartree
Number of active orbitals = 18
Number of active electrons = 9
EMax =   1.47e-03
thresh =   1.00e-06
Generating Pseudo-Fermi distribution of occupation numbers.
--
# Rescaled active electrons =      9.000
Writing occupation numbers to disk ...
---- Fractional Occupation Number Information End ----


---- Fractional Occupation Number Information ----
Temperature =    300.000 K
Fermi level =   0.012219 Hartree
HOMO-LUMO gap =   0.152486 Hartree
Number of active orbitals = 18
Number of active electrons = 9
EMax =   1.47e-03
thresh =   1.00e-06
Generating Pseudo-Fermi distribution of occupation numbers.
--
# Rescaled active electrons =      9.000
Writing occupation numbers to disk ...
---- Fractional Occupation Number Information End ----

   22   -1104.8131553442      1.47E-03

---- Fractional Occupation Number Information ----
Temperature =    300.000 K
Fermi level =   0.076233 Hartree
HOMO-LUMO gap =   0.032603 Hartree
Number of active orbitals = 18
Number of active electrons = 9
EMax =   9.35e-04
thresh =   1.00e-06
Generating Pseudo-Fermi distribution of occupation numbers.
--
# Rescaled active electrons =      9.000
Writing occupation numbers to disk ...
---- Fractional Occupation Number Information End ----


---- Fractional Occupation Number Information ----
Temperature =    300.000 K
Fermi level =   0.023804 Hartree
HOMO-LUMO gap =   0.135241 Hartree
Number of active orbitals = 18
Number of active electrons = 9
EMax =   9.35e-04
thresh =   1.00e-06
Generating Pseudo-Fermi distribution of occupation numbers.
--
# Rescaled active electrons =      9.000
Writing occupation numbers to disk ...
---- Fractional Occupation Number Information End ----

   23   -1104.8266092298      9.35E-04

---- Fractional Occupation Number Information ----
Temperature =    300.000 K
Fermi level =   0.076382 Hartree
HOMO-LUMO gap =   0.035060 Hartree
Number of active orbitals = 18
Number of active electrons = 9
EMax =   2.80e-04
thresh =   1.00e-06
Generating Pseudo-Fermi distribution of occupation numbers.
--
# Rescaled active electrons =      9.000
Writing occupation numbers to disk ...
---- Fractional Occupation Number Information End ----


---- Fractional Occupation Number Information ----
Temperature =    300.000 K
Fermi level =   0.024857 Hartree
HOMO-LUMO gap =   0.135627 Hartree
Number of active orbitals = 18
Number of active electrons = 9
EMax =   2.80e-04
thresh =   1.00e-06
Generating Pseudo-Fermi distribution of occupation numbers.
--
# Rescaled active electrons =      9.000
Writing occupation numbers to disk ...
---- Fractional Occupation Number Information End ----

   24   -1104.8331500704      2.80E-04

---- Fractional Occupation Number Information ----
Temperature =    300.000 K
Fermi level =   0.075614 Hartree
HOMO-LUMO gap =   0.035927 Hartree
Number of active orbitals = 18
Number of active electrons = 9
EMax =   6.12e-05
thresh =   1.00e-06
Generating Pseudo-Fermi distribution of occupation numbers.
--
# Rescaled active electrons =      9.000
Writing occupation numbers to disk ...
---- Fractional Occupation Number Information End ----


---- Fractional Occupation Number Information ----
Temperature =    300.000 K
Fermi level =   0.024048 Hartree
HOMO-LUMO gap =   0.136978 Hartree
Number of active orbitals = 18
Number of active electrons = 9
EMax =   6.12e-05
thresh =   1.00e-06
Generating Pseudo-Fermi distribution of occupation numbers.
--
# Rescaled active electrons =      9.000
Writing occupation numbers to disk ...
---- Fractional Occupation Number Information End ----

   25   -1104.8339508698      6.12E-05

---- Fractional Occupation Number Information ----
Temperature =    300.000 K
Fermi level =   0.075300 Hartree
HOMO-LUMO gap =   0.036353 Hartree
Number of active orbitals = 18
Number of active electrons = 9
EMax =   3.57e-05
thresh =   1.00e-06
Generating Pseudo-Fermi distribution of occupation numbers.
--
# Rescaled active electrons =      9.000
Writing occupation numbers to disk ...
---- Fractional Occupation Number Information End ----


---- Fractional Occupation Number Information ----
Temperature =    300.000 K
Fermi level =   0.023972 Hartree
HOMO-LUMO gap =   0.137011 Hartree
Number of active orbitals = 18
Number of active electrons = 9
EMax =   3.57e-05
thresh =   1.00e-06
Generating Pseudo-Fermi distribution of occupation numbers.
--
# Rescaled active electrons =      9.000
Writing occupation numbers to disk ...
---- Fractional Occupation Number Information End ----

   26   -1104.8340413491      3.57E-05

---- Fractional Occupation Number Information ----
Temperature =    300.000 K
Fermi level =   0.075255 Hartree
HOMO-LUMO gap =   0.036671 Hartree
Number of active orbitals = 18
Number of active electrons = 9
EMax =   9.94e-06
thresh =   1.00e-06
Generating Pseudo-Fermi distribution of occupation numbers.
--
# Rescaled active electrons =      9.000
Writing occupation numbers to disk ...
---- Fractional Occupation Number Information End ----


---- Fractional Occupation Number Information ----
Temperature =    300.000 K
Fermi level =   0.024281 Hartree
HOMO-LUMO gap =   0.136618 Hartree
Number of active orbitals = 18
Number of active electrons = 9
EMax =   9.94e-06
thresh =   1.00e-06
Generating Pseudo-Fermi distribution of occupation numbers.
--
# Rescaled active electrons =      9.000
Writing occupation numbers to disk ...
---- Fractional Occupation Number Information End ----

   27   -1104.8340922767      9.94E-06

---- Fractional Occupation Number Information ----
Temperature =    300.000 K
Fermi level =   0.075284 Hartree
HOMO-LUMO gap =   0.036856 Hartree
Number of active orbitals = 18
Number of active electrons = 9
EMax =   4.90e-06
thresh =   1.00e-06
Generating Pseudo-Fermi distribution of occupation numbers.
--
# Rescaled active electrons =      9.000
Writing occupation numbers to disk ...
---- Fractional Occupation Number Information End ----


---- Fractional Occupation Number Information ----
Temperature =    300.000 K
Fermi level =   0.024471 Hartree
HOMO-LUMO gap =   0.136525 Hartree
Number of active orbitals = 18
Number of active electrons = 9
EMax =   4.90e-06
thresh =   1.00e-06
Generating Pseudo-Fermi distribution of occupation numbers.
--
# Rescaled active electrons =      9.000
Writing occupation numbers to disk ...
---- Fractional Occupation Number Information End ----

   28   -1104.8340918433      4.90E-06

---- Fractional Occupation Number Information ----
Temperature =    300.000 K
Fermi level =   0.075297 Hartree
HOMO-LUMO gap =   0.037012 Hartree
Number of active orbitals = 18
Number of active electrons = 9
EMax =   2.97e-06
thresh =   1.00e-06
Generating Pseudo-Fermi distribution of occupation numbers.
--
# Rescaled active electrons =      9.000
Writing occupation numbers to disk ...
---- Fractional Occupation Number Information End ----


---- Fractional Occupation Number Information ----
Temperature =    300.000 K
Fermi level =   0.024670 Hartree
HOMO-LUMO gap =   0.136388 Hartree
Number of active orbitals = 18
Number of active electrons = 9
EMax =   2.97e-06
thresh =   1.00e-06
Generating Pseudo-Fermi distribution of occupation numbers.
--
# Rescaled active electrons =      9.000
Writing occupation numbers to disk ...
---- Fractional Occupation Number Information End ----

   29   -1104.8340177256      2.97E-06

---- Fractional Occupation Number Information ----
Temperature =    300.000 K
Fermi level =   0.075296 Hartree
HOMO-LUMO gap =   0.037045 Hartree
Number of active orbitals = 18
Number of active electrons = 9
EMax =   1.67e-06
thresh =   1.00e-06
Generating Pseudo-Fermi distribution of occupation numbers.
--
# Rescaled active electrons =      9.000
Writing occupation numbers to disk ...
---- Fractional Occupation Number Information End ----


---- Fractional Occupation Number Information ----
Temperature =    300.000 K
Fermi level =   0.024722 Hartree
HOMO-LUMO gap =   0.136348 Hartree
Number of active orbitals = 18
Number of active electrons = 9
EMax =   1.67e-06
thresh =   1.00e-06
Generating Pseudo-Fermi distribution of occupation numbers.
--
# Rescaled active electrons =      9.000
Writing occupation numbers to disk ...
---- Fractional Occupation Number Information End ----

   30   -1104.8340339222      1.67E-06

---- Fractional Occupation Number Information ----
Temperature =    300.000 K
Fermi level =   0.075287 Hartree
HOMO-LUMO gap =   0.037028 Hartree
Number of active orbitals = 18
Number of active electrons = 9
EMax =   2.08e-06
thresh =   1.00e-06
Generating Pseudo-Fermi distribution of occupation numbers.
--
# Rescaled active electrons =      9.000
Writing occupation numbers to disk ...
---- Fractional Occupation Number Information End ----


---- Fractional Occupation Number Information ----
Temperature =    300.000 K
Fermi level =   0.024713 Hartree
HOMO-LUMO gap =   0.136327 Hartree
Number of active orbitals = 18
Number of active electrons = 9
EMax =   2.08e-06
thresh =   1.00e-06
Generating Pseudo-Fermi distribution of occupation numbers.
--
# Rescaled active electrons =      9.000
Writing occupation numbers to disk ...
---- Fractional Occupation Number Information End ----

   31   -1104.8341475895      2.08E-06

---- Fractional Occupation Number Information ----
Temperature =    300.000 K
Fermi level =   0.075296 Hartree
HOMO-LUMO gap =   0.037062 Hartree
Number of active orbitals = 18
Number of active electrons = 9
EMax =   1.11e-06
thresh =   1.00e-06
Generating Pseudo-Fermi distribution of occupation numbers.
--
# Rescaled active electrons =      9.000
Writing occupation numbers to disk ...
---- Fractional Occupation Number Information End ----


---- Fractional Occupation Number Information ----
Temperature =    300.000 K
Fermi level =   0.024748 Hartree
HOMO-LUMO gap =   0.136328 Hartree
Number of active orbitals = 18
Number of active electrons = 9
EMax =   1.11e-06
thresh =   1.00e-06
Generating Pseudo-Fermi distribution of occupation numbers.
--
# Rescaled active electrons =      9.000
Writing occupation numbers to disk ...
---- Fractional Occupation Number Information End ----

   32   -1104.8341226293      1.11E-06

---- Fractional Occupation Number Information ----
Temperature =    300.000 K
Fermi level =   0.075290 Hartree
HOMO-LUMO gap =   0.037048 Hartree
Number of active orbitals = 18
Number of active electrons = 9
EMax =   2.21e-06
thresh =   1.00e-06
Generating Pseudo-Fermi distribution of occupation numbers.
--
# Rescaled active electrons =      9.000
Writing occupation numbers to disk ...
---- Fractional Occupation Number Information End ----


---- Fractional Occupation Number Information ----
Temperature =    300.000 K
Fermi level =   0.024745 Hartree
HOMO-LUMO gap =   0.136307 Hartree
Number of active orbitals = 18
Number of active electrons = 9
EMax =   2.21e-06
thresh =   1.00e-06
Generating Pseudo-Fermi distribution of occupation numbers.
--
# Rescaled active electrons =      9.000
Writing occupation numbers to disk ...
---- Fractional Occupation Number Information End ----

   33   -1104.8340738910      2.21E-06

---- Fractional Occupation Number Information ----
Temperature =    300.000 K
Fermi level =   0.075271 Hartree
HOMO-LUMO gap =   0.037005 Hartree
Number of active orbitals = 18
Number of active electrons = 9
EMax =   2.31e-06
thresh =   1.00e-06
Generating Pseudo-Fermi distribution of occupation numbers.
--
# Rescaled active electrons =      9.000
Writing occupation numbers to disk ...
---- Fractional Occupation Number Information End ----


---- Fractional Occupation Number Information ----
Temperature =    300.000 K
Fermi level =   0.024722 Hartree
HOMO-LUMO gap =   0.136258 Hartree
Number of active orbitals = 18
Number of active electrons = 9
EMax =   2.31e-06
thresh =   1.00e-06
Generating Pseudo-Fermi distribution of occupation numbers.
--
# Rescaled active electrons =      9.000
Writing occupation numbers to disk ...
---- Fractional Occupation Number Information End ----

   34   -1104.8340545218      2.31E-06

---- Fractional Occupation Number Information ----
Temperature =    300.000 K
Fermi level =   0.075269 Hartree
HOMO-LUMO gap =   0.037004 Hartree
Number of active orbitals = 18
Number of active electrons = 9
EMax =   1.29e-06
thresh =   1.00e-06
Generating Pseudo-Fermi distribution of occupation numbers.
--
# Rescaled active electrons =      9.000
Writing occupation numbers to disk ...
---- Fractional Occupation Number Information End ----


---- Fractional Occupation Number Information ----
Temperature =    300.000 K
Fermi level =   0.024721 Hartree
HOMO-LUMO gap =   0.136252 Hartree
Number of active orbitals = 18
Number of active electrons = 9
EMax =   1.29e-06
thresh =   1.00e-06
Generating Pseudo-Fermi distribution of occupation numbers.
--
# Rescaled active electrons =      9.000
Writing occupation numbers to disk ...
---- Fractional Occupation Number Information End ----

   35   -1104.8340950485      1.29E-06

---- Fractional Occupation Number Information ----
Temperature =    300.000 K
Fermi level =   0.075269 Hartree
HOMO-LUMO gap =   0.036995 Hartree
Number of active orbitals = 18
Number of active electrons = 9
EMax =   1.08e-06
thresh =   1.00e-06
Generating Pseudo-Fermi distribution of occupation numbers.
--
# Rescaled active electrons =      9.000
Writing occupation numbers to disk ...
---- Fractional Occupation Number Information End ----


---- Fractional Occupation Number Information ----
Temperature =    300.000 K
Fermi level =   0.024723 Hartree
HOMO-LUMO gap =   0.136231 Hartree
Number of active orbitals = 18
Number of active electrons = 9
EMax =   1.08e-06
thresh =   1.00e-06
Generating Pseudo-Fermi distribution of occupation numbers.
--
# Rescaled active electrons =      9.000
Writing occupation numbers to disk ...
---- Fractional Occupation Number Information End ----

   36   -1104.8340961423      1.08E-06

---- Fractional Occupation Number Information ----
Temperature =    300.000 K
Fermi level =   0.075264 Hartree
HOMO-LUMO gap =   0.036986 Hartree
Number of active orbitals = 18
Number of active electrons = 9
EMax =   1.28e-06
thresh =   1.00e-06
Generating Pseudo-Fermi distribution of occupation numbers.
--
# Rescaled active electrons =      9.000
Writing occupation numbers to disk ...
---- Fractional Occupation Number Information End ----


---- Fractional Occupation Number Information ----
Temperature =    300.000 K
Fermi level =   0.024717 Hartree
HOMO-LUMO gap =   0.136222 Hartree
Number of active orbitals = 18
Number of active electrons = 9
EMax =   1.28e-06
thresh =   1.00e-06
Generating Pseudo-Fermi distribution of occupation numbers.
--
# Rescaled active electrons =      9.000
Writing occupation numbers to disk ...
---- Fractional Occupation Number Information End ----

   37   -1104.8341166434      1.28E-06

---- Fractional Occupation Number Information ----
Temperature =    300.000 K
Fermi level =   0.075266 Hartree
HOMO-LUMO gap =   0.036988 Hartree
Number of active orbitals = 18
Number of active electrons = 9
EMax =   1.19e-06
thresh =   1.00e-06
Generating Pseudo-Fermi distribution of occupation numbers.
--
# Rescaled active electrons =      9.000
Writing occupation numbers to disk ...
---- Fractional Occupation Number Information End ----


---- Fractional Occupation Number Information ----
Temperature =    300.000 K
Fermi level =   0.024719 Hartree
HOMO-LUMO gap =   0.136224 Hartree
Number of active orbitals = 18
Number of active electrons = 9
EMax =   1.19e-06
thresh =   1.00e-06
Generating Pseudo-Fermi distribution of occupation numbers.
--
# Rescaled active electrons =      9.000
Writing occupation numbers to disk ...
---- Fractional Occupation Number Information End ----

   38   -1104.8341308360      1.19E-06

---- Fractional Occupation Number Information ----
Temperature =    300.000 K
Fermi level =   0.075261 Hartree
HOMO-LUMO gap =   0.036979 Hartree
Number of active orbitals = 18
Number of active electrons = 9
EMax =   1.51e-06
thresh =   1.00e-06
Generating Pseudo-Fermi distribution of occupation numbers.
--
# Rescaled active electrons =      9.000
Writing occupation numbers to disk ...
---- Fractional Occupation Number Information End ----


---- Fractional Occupation Number Information ----
Temperature =    300.000 K
Fermi level =   0.024715 Hartree
HOMO-LUMO gap =   0.136211 Hartree
Number of active orbitals = 18
Number of active electrons = 9
EMax =   1.51e-06
thresh =   1.00e-06
Generating Pseudo-Fermi distribution of occupation numbers.
--
# Rescaled active electrons =      9.000
Writing occupation numbers to disk ...
---- Fractional Occupation Number Information End ----

   39   -1104.8340625438      1.51E-06

---- Fractional Occupation Number Information ----
Temperature =    300.000 K
Fermi level =   0.075256 Hartree
HOMO-LUMO gap =   0.036970 Hartree
Number of active orbitals = 18
Number of active electrons = 9
EMax =   1.77e-06
thresh =   1.00e-06
Generating Pseudo-Fermi distribution of occupation numbers.
--
# Rescaled active electrons =      9.000
Writing occupation numbers to disk ...
---- Fractional Occupation Number Information End ----


---- Fractional Occupation Number Information ----
Temperature =    300.000 K
Fermi level =   0.024711 Hartree
HOMO-LUMO gap =   0.136198 Hartree
Number of active orbitals = 18
Number of active electrons = 9
EMax =   1.77e-06
thresh =   1.00e-06
Generating Pseudo-Fermi distribution of occupation numbers.
--
# Rescaled active electrons =      9.000
Writing occupation numbers to disk ...
---- Fractional Occupation Number Information End ----

   40   -1104.8340326740      1.77E-06

---- Fractional Occupation Number Information ----
Temperature =    300.000 K
Fermi level =   0.075265 Hartree
HOMO-LUMO gap =   0.036987 Hartree
Number of active orbitals = 18
Number of active electrons = 9
EMax =   1.38e-06
thresh =   1.00e-06
Generating Pseudo-Fermi distribution of occupation numbers.
--
# Rescaled active electrons =      9.000
Writing occupation numbers to disk ...
---- Fractional Occupation Number Information End ----


---- Fractional Occupation Number Information ----
Temperature =    300.000 K
Fermi level =   0.024720 Hartree
HOMO-LUMO gap =   0.136221 Hartree
Number of active orbitals = 18
Number of active electrons = 9
EMax =   1.38e-06
thresh =   1.00e-06
Generating Pseudo-Fermi distribution of occupation numbers.
--
# Rescaled active electrons =      9.000
Writing occupation numbers to disk ...
---- Fractional Occupation Number Information End ----

   41   -1104.8340347561      1.38E-06

---- Fractional Occupation Number Information ----
Temperature =    300.000 K
Fermi level =   0.075266 Hartree
HOMO-LUMO gap =   0.036990 Hartree
Number of active orbitals = 18
Number of active electrons = 9
EMax =   2.19e-06
thresh =   1.00e-06
Generating Pseudo-Fermi distribution of occupation numbers.
--
# Rescaled active electrons =      9.000
Writing occupation numbers to disk ...
---- Fractional Occupation Number Information End ----


---- Fractional Occupation Number Information ----
Temperature =    300.000 K
Fermi level =   0.024721 Hartree
HOMO-LUMO gap =   0.136225 Hartree
Number of active orbitals = 18
Number of active electrons = 9
EMax =   2.19e-06
thresh =   1.00e-06
Generating Pseudo-Fermi distribution of occupation numbers.
--
# Rescaled active electrons =      9.000
Writing occupation numbers to disk ...
---- Fractional Occupation Number Information End ----

   42   -1104.8340375757      2.19E-06

---- Fractional Occupation Number Information ----
Temperature =    300.000 K
Fermi level =   0.075266 Hartree
HOMO-LUMO gap =   0.036990 Hartree
Number of active orbitals = 18
Number of active electrons = 9
EMax =   2.32e-06
thresh =   1.00e-06
Generating Pseudo-Fermi distribution of occupation numbers.
--
# Rescaled active electrons =      9.000
Writing occupation numbers to disk ...
---- Fractional Occupation Number Information End ----


---- Fractional Occupation Number Information ----
Temperature =    300.000 K
Fermi level =   0.024721 Hartree
HOMO-LUMO gap =   0.136225 Hartree
Number of active orbitals = 18
Number of active electrons = 9
EMax =   2.32e-06
thresh =   1.00e-06
Generating Pseudo-Fermi distribution of occupation numbers.
--
# Rescaled active electrons =      9.000
Writing occupation numbers to disk ...
---- Fractional Occupation Number Information End ----

   43   -1104.8340380589      2.32E-06

---- Fractional Occupation Number Information ----
Temperature =    300.000 K
Fermi level =   0.075266 Hartree
HOMO-LUMO gap =   0.036988 Hartree
Number of active orbitals = 18
Number of active electrons = 9
EMax =   2.32e-06
thresh =   1.00e-06
Generating Pseudo-Fermi distribution of occupation numbers.
--
# Rescaled active electrons =      9.000
Writing occupation numbers to disk ...
---- Fractional Occupation Number Information End ----


---- Fractional Occupation Number Information ----
Temperature =    300.000 K
Fermi level =   0.024720 Hartree
HOMO-LUMO gap =   0.136224 Hartree
Number of active orbitals = 18
Number of active electrons = 9
EMax =   2.32e-06
thresh =   1.00e-06
Generating Pseudo-Fermi distribution of occupation numbers.
--
# Rescaled active electrons =      9.000
Writing occupation numbers to disk ...
---- Fractional Occupation Number Information End ----

   44   -1104.8340396895      2.32E-06

---- Fractional Occupation Number Information ----
Temperature =    300.000 K
Fermi level =   0.075261 Hartree
HOMO-LUMO gap =   0.036980 Hartree
Number of active orbitals = 18
Number of active electrons = 9
EMax =   2.33e-06
thresh =   1.00e-06
Generating Pseudo-Fermi distribution of occupation numbers.
--
# Rescaled active electrons =      9.000
Writing occupation numbers to disk ...
---- Fractional Occupation Number Information End ----


---- Fractional Occupation Number Information ----
Temperature =    300.000 K
Fermi level =   0.024713 Hartree
HOMO-LUMO gap =   0.136216 Hartree
Number of active orbitals = 18
Number of active electrons = 9
EMax =   2.33e-06
thresh =   1.00e-06
Generating Pseudo-Fermi distribution of occupation numbers.
--
# Rescaled active electrons =      9.000
Writing occupation numbers to disk ...
---- Fractional Occupation Number Information End ----

   45   -1104.8340533597      2.33E-06

---- Fractional Occupation Number Information ----
Temperature =    300.000 K
Fermi level =   0.075259 Hartree
HOMO-LUMO gap =   0.036973 Hartree
Number of active orbitals = 18
Number of active electrons = 9
EMax =   1.87e-06
thresh =   1.00e-06
Generating Pseudo-Fermi distribution of occupation numbers.
--
# Rescaled active electrons =      9.000
Writing occupation numbers to disk ...
---- Fractional Occupation Number Information End ----


---- Fractional Occupation Number Information ----
Temperature =    300.000 K
Fermi level =   0.024711 Hartree
HOMO-LUMO gap =   0.136206 Hartree
Number of active orbitals = 18
Number of active electrons = 9
EMax =   1.87e-06
thresh =   1.00e-06
Generating Pseudo-Fermi distribution of occupation numbers.
--
# Rescaled active electrons =      9.000
Writing occupation numbers to disk ...
---- Fractional Occupation Number Information End ----

   46   -1104.8340543477      1.87E-06

---- Fractional Occupation Number Information ----
Temperature =    300.000 K
Fermi level =   0.075259 Hartree
HOMO-LUMO gap =   0.036972 Hartree
Number of active orbitals = 18
Number of active electrons = 9
EMax =   1.89e-06
thresh =   1.00e-06
Generating Pseudo-Fermi distribution of occupation numbers.
--
# Rescaled active electrons =      9.000
Writing occupation numbers to disk ...
---- Fractional Occupation Number Information End ----


---- Fractional Occupation Number Information ----
Temperature =    300.000 K
Fermi level =   0.024710 Hartree
HOMO-LUMO gap =   0.136207 Hartree
Number of active orbitals = 18
Number of active electrons = 9
EMax =   1.89e-06
thresh =   1.00e-06
Generating Pseudo-Fermi distribution of occupation numbers.
--
# Rescaled active electrons =      9.000
Writing occupation numbers to disk ...
---- Fractional Occupation Number Information End ----

   47   -1104.8339666782      1.89E-06

---- Fractional Occupation Number Information ----
Temperature =    300.000 K
Fermi level =   0.075262 Hartree
HOMO-LUMO gap =   0.036978 Hartree
Number of active orbitals = 18
Number of active electrons = 9
EMax =   1.13e-06
thresh =   1.00e-06
Generating Pseudo-Fermi distribution of occupation numbers.
--
# Rescaled active electrons =      9.000
Writing occupation numbers to disk ...
---- Fractional Occupation Number Information End ----


---- Fractional Occupation Number Information ----
Temperature =    300.000 K
Fermi level =   0.024715 Hartree
HOMO-LUMO gap =   0.136219 Hartree
Number of active orbitals = 18
Number of active electrons = 9
EMax =   1.13e-06
thresh =   1.00e-06
Generating Pseudo-Fermi distribution of occupation numbers.
--
# Rescaled active electrons =      9.000
Writing occupation numbers to disk ...
---- Fractional Occupation Number Information End ----

   48   -1104.8340196816      1.13E-06

---- Fractional Occupation Number Information ----
Temperature =    300.000 K
Fermi level =   0.075268 Hartree
HOMO-LUMO gap =   0.036990 Hartree
Number of active orbitals = 18
Number of active electrons = 9
EMax =   1.88e-06
thresh =   1.00e-06
Generating Pseudo-Fermi distribution of occupation numbers.
--
# Rescaled active electrons =      9.000
Writing occupation numbers to disk ...
---- Fractional Occupation Number Information End ----


---- Fractional Occupation Number Information ----
Temperature =    300.000 K
Fermi level =   0.024722 Hartree
HOMO-LUMO gap =   0.136232 Hartree
Number of active orbitals = 18
Number of active electrons = 9
EMax =   1.88e-06
thresh =   1.00e-06
Generating Pseudo-Fermi distribution of occupation numbers.
--
# Rescaled active electrons =      9.000
Writing occupation numbers to disk ...
---- Fractional Occupation Number Information End ----

   49   -1104.8341025177      1.88E-06

---- Fractional Occupation Number Information ----
Temperature =    300.000 K
Fermi level =   0.075267 Hartree
HOMO-LUMO gap =   0.036988 Hartree
Number of active orbitals = 18
Number of active electrons = 9
EMax =   8.90e-07
thresh =   1.00e-06
---- Fractional Occupation Number Information End ----


---- Fractional Occupation Number Information ----
Temperature =    300.000 K
Fermi level =   0.024721 Hartree
HOMO-LUMO gap =   0.136230 Hartree
Number of active orbitals = 18
Number of active electrons = 9
EMax =   8.90e-07
thresh =   1.00e-06
---- Fractional Occupation Number Information End ----

   50   -1104.8340659963      8.90E-07

---- Fractional Occupation Number Information ----
Temperature =    300.000 K
Fermi level =   0.075258 Hartree
HOMO-LUMO gap =   0.036972 Hartree
Number of active orbitals = 18
Number of active electrons = 9
EMax =   9.78e-07
thresh =   1.00e-06
---- Fractional Occupation Number Information End ----


---- Fractional Occupation Number Information ----
Temperature =    300.000 K
Fermi level =   0.024711 Hartree
HOMO-LUMO gap =   0.136211 Hartree
Number of active orbitals = 18
Number of active electrons = 9
EMax =   9.78e-07
thresh =   1.00e-06
---- Fractional Occupation Number Information End ----

   51   -1104.8340591126      9.78E-07

---- Fractional Occupation Number Information ----
Temperature =    300.000 K
Fermi level =   0.075260 Hartree
HOMO-LUMO gap =   0.036976 Hartree
Number of active orbitals = 18
Number of active electrons = 9
EMax =   3.25e-06
thresh =   1.00e-06
Generating Pseudo-Fermi distribution of occupation numbers.
--
# Rescaled active electrons =      9.000
Writing occupation numbers to disk ...
---- Fractional Occupation Number Information End ----


---- Fractional Occupation Number Information ----
Temperature =    300.000 K
Fermi level =   0.024714 Hartree
HOMO-LUMO gap =   0.136215 Hartree
Number of active orbitals = 18
Number of active electrons = 9
EMax =   3.25e-06
thresh =   1.00e-06
Generating Pseudo-Fermi distribution of occupation numbers.
--
# Rescaled active electrons =      9.000
Writing occupation numbers to disk ...
---- Fractional Occupation Number Information End ----

   52   -1104.8340994184      3.25E-06

---- Fractional Occupation Number Information ----
Temperature =    300.000 K
Fermi level =   0.075260 Hartree
HOMO-LUMO gap =   0.036975 Hartree
Number of active orbitals = 18
Number of active electrons = 9
EMax =   2.84e-06
thresh =   1.00e-06
Generating Pseudo-Fermi distribution of occupation numbers.
--
# Rescaled active electrons =      9.000
Writing occupation numbers to disk ...
---- Fractional Occupation Number Information End ----


---- Fractional Occupation Number Information ----
Temperature =    300.000 K
Fermi level =   0.024714 Hartree
HOMO-LUMO gap =   0.136215 Hartree
Number of active orbitals = 18
Number of active electrons = 9
EMax =   2.84e-06
thresh =   1.00e-06
Generating Pseudo-Fermi distribution of occupation numbers.
--
# Rescaled active electrons =      9.000
Writing occupation numbers to disk ...
---- Fractional Occupation Number Information End ----

   53   -1104.8340561893      2.84E-06

---- Fractional Occupation Number Information ----
Temperature =    300.000 K
Fermi level =   0.075257 Hartree
HOMO-LUMO gap =   0.036971 Hartree
Number of active orbitals = 18
Number of active electrons = 9
EMax =   2.58e-06
thresh =   1.00e-06
Generating Pseudo-Fermi distribution of occupation numbers.
--
# Rescaled active electrons =      9.000
Writing occupation numbers to disk ...
---- Fractional Occupation Number Information End ----


---- Fractional Occupation Number Information ----
Temperature =    300.000 K
Fermi level =   0.024710 Hartree
HOMO-LUMO gap =   0.136207 Hartree
Number of active orbitals = 18
Number of active electrons = 9
EMax =   2.58e-06
thresh =   1.00e-06
Generating Pseudo-Fermi distribution of occupation numbers.
--
# Rescaled active electrons =      9.000
Writing occupation numbers to disk ...
---- Fractional Occupation Number Information End ----

   54   -1104.8340505602      2.58E-06

---- Fractional Occupation Number Information ----
Temperature =    300.000 K
Fermi level =   0.075263 Hartree
HOMO-LUMO gap =   0.036981 Hartree
Number of active orbitals = 18
Number of active electrons = 9
EMax =   3.76e-06
thresh =   1.00e-06
Generating Pseudo-Fermi distribution of occupation numbers.
--
# Rescaled active electrons =      9.000
Writing occupation numbers to disk ...
---- Fractional Occupation Number Information End ----


---- Fractional Occupation Number Information ----
Temperature =    300.000 K
Fermi level =   0.024717 Hartree
HOMO-LUMO gap =   0.136219 Hartree
Number of active orbitals = 18
Number of active electrons = 9
EMax =   3.76e-06
thresh =   1.00e-06
Generating Pseudo-Fermi distribution of occupation numbers.
--
# Rescaled active electrons =      9.000
Writing occupation numbers to disk ...
---- Fractional Occupation Number Information End ----

   55   -1104.8340154050      3.76E-06

---- Fractional Occupation Number Information ----
Temperature =    300.000 K
Fermi level =   0.075262 Hartree
HOMO-LUMO gap =   0.036978 Hartree
Number of active orbitals = 18
Number of active electrons = 9
EMax =   2.63e-06
thresh =   1.00e-06
Generating Pseudo-Fermi distribution of occupation numbers.
--
# Rescaled active electrons =      9.000
Writing occupation numbers to disk ...
---- Fractional Occupation Number Information End ----


---- Fractional Occupation Number Information ----
Temperature =    300.000 K
Fermi level =   0.024714 Hartree
HOMO-LUMO gap =   0.136214 Hartree
Number of active orbitals = 18
Number of active electrons = 9
EMax =   2.63e-06
thresh =   1.00e-06
Generating Pseudo-Fermi distribution of occupation numbers.
--
# Rescaled active electrons =      9.000
Writing occupation numbers to disk ...
---- Fractional Occupation Number Information End ----

   56   -1104.8339905150      2.63E-06

---- Fractional Occupation Number Information ----
Temperature =    300.000 K
Fermi level =   0.075262 Hartree
HOMO-LUMO gap =   0.036979 Hartree
Number of active orbitals = 18
Number of active electrons = 9
EMax =   1.97e-06
thresh =   1.00e-06
Generating Pseudo-Fermi distribution of occupation numbers.
--
# Rescaled active electrons =      9.000
Writing occupation numbers to disk ...
---- Fractional Occupation Number Information End ----


---- Fractional Occupation Number Information ----
Temperature =    300.000 K
Fermi level =   0.024714 Hartree
HOMO-LUMO gap =   0.136214 Hartree
Number of active orbitals = 18
Number of active electrons = 9
EMax =   1.97e-06
thresh =   1.00e-06
Generating Pseudo-Fermi distribution of occupation numbers.
--
# Rescaled active electrons =      9.000
Writing occupation numbers to disk ...
---- Fractional Occupation Number Information End ----

   57   -1104.8340885316      1.97E-06

---- Fractional Occupation Number Information ----
Temperature =    300.000 K
Fermi level =   0.075262 Hartree
HOMO-LUMO gap =   0.036979 Hartree
Number of active orbitals = 18
Number of active electrons = 9
EMax =   1.60e-06
thresh =   1.00e-06
Generating Pseudo-Fermi distribution of occupation numbers.
--
# Rescaled active electrons =      9.000
Writing occupation numbers to disk ...
---- Fractional Occupation Number Information End ----


---- Fractional Occupation Number Information ----
Temperature =    300.000 K
Fermi level =   0.024713 Hartree
HOMO-LUMO gap =   0.136211 Hartree
Number of active orbitals = 18
Number of active electrons = 9
EMax =   1.60e-06
thresh =   1.00e-06
Generating Pseudo-Fermi distribution of occupation numbers.
--
# Rescaled active electrons =      9.000
Writing occupation numbers to disk ...
---- Fractional Occupation Number Information End ----

   58   -1104.8340809658      1.60E-06

---- Fractional Occupation Number Information ----
Temperature =    300.000 K
Fermi level =   0.075263 Hartree
HOMO-LUMO gap =   0.036980 Hartree
Number of active orbitals = 18
Number of active electrons = 9
EMax =   1.79e-06
thresh =   1.00e-06
Generating Pseudo-Fermi distribution of occupation numbers.
--
# Rescaled active electrons =      9.000
Writing occupation numbers to disk ...
---- Fractional Occupation Number Information End ----


---- Fractional Occupation Number Information ----
Temperature =    300.000 K
Fermi level =   0.024715 Hartree
HOMO-LUMO gap =   0.136211 Hartree
Number of active orbitals = 18
Number of active electrons = 9
EMax =   1.79e-06
thresh =   1.00e-06
Generating Pseudo-Fermi distribution of occupation numbers.
--
# Rescaled active electrons =      9.000
Writing occupation numbers to disk ...
---- Fractional Occupation Number Information End ----

   59   -1104.8341014175      1.79E-06

---- Fractional Occupation Number Information ----
Temperature =    300.000 K
Fermi level =   0.075267 Hartree
HOMO-LUMO gap =   0.036984 Hartree
Number of active orbitals = 18
Number of active electrons = 9
EMax =   1.24e-06
thresh =   1.00e-06
Generating Pseudo-Fermi distribution of occupation numbers.
--
# Rescaled active electrons =      9.000
Writing occupation numbers to disk ...
---- Fractional Occupation Number Information End ----


---- Fractional Occupation Number Information ----
Temperature =    300.000 K
Fermi level =   0.024720 Hartree
HOMO-LUMO gap =   0.136222 Hartree
Number of active orbitals = 18
Number of active electrons = 9
EMax =   1.24e-06
thresh =   1.00e-06
Generating Pseudo-Fermi distribution of occupation numbers.
--
# Rescaled active electrons =      9.000
Writing occupation numbers to disk ...
---- Fractional Occupation Number Information End ----

   60   -1104.8340952615      1.24E-06

---- Fractional Occupation Number Information ----
Temperature =    300.000 K
Fermi level =   0.075267 Hartree
HOMO-LUMO gap =   0.036986 Hartree
Number of active orbitals = 18
Number of active electrons = 9
EMax =   4.13e-07
thresh =   1.00e-06
---- Fractional Occupation Number Information End ----


---- Fractional Occupation Number Information ----
Temperature =    300.000 K
Fermi level =   0.024721 Hartree
HOMO-LUMO gap =   0.136226 Hartree
Number of active orbitals = 18
Number of active electrons = 9
EMax =   4.13e-07
thresh =   1.00e-06
---- Fractional Occupation Number Information End ----

   61   -1104.8340566179      4.13E-07

---- Fractional Occupation Number Information ----
Temperature =    300.000 K
Fermi level =   0.075265 Hartree
HOMO-LUMO gap =   0.036982 Hartree
Number of active orbitals = 18
Number of active electrons = 9
EMax =   7.79e-07
thresh =   1.00e-06
---- Fractional Occupation Number Information End ----


---- Fractional Occupation Number Information ----
Temperature =    300.000 K
Fermi level =   0.024721 Hartree
HOMO-LUMO gap =   0.136225 Hartree
Number of active orbitals = 18
Number of active electrons = 9
EMax =   7.79e-07
thresh =   1.00e-06
---- Fractional Occupation Number Information End ----

   62   -1104.8340836622      7.79E-07

---- Fractional Occupation Number Information ----
Temperature =    300.000 K
Fermi level =   0.075264 Hartree
HOMO-LUMO gap =   0.036980 Hartree
Number of active orbitals = 18
Number of active electrons = 9
EMax =   9.88e-07
thresh =   1.00e-06
---- Fractional Occupation Number Information End ----


---- Fractional Occupation Number Information ----
Temperature =    300.000 K
Fermi level =   0.024719 Hartree
HOMO-LUMO gap =   0.136221 Hartree
Number of active orbitals = 18
Number of active electrons = 9
EMax =   9.88e-07
thresh =   1.00e-06
---- Fractional Occupation Number Information End ----

   63   -1104.8340234463      9.88E-07

---- Fractional Occupation Number Information ----
Temperature =    300.000 K
Fermi level =   0.075266 Hartree
HOMO-LUMO gap =   0.036983 Hartree
Number of active orbitals = 18
Number of active electrons = 9
EMax =   1.01e-06
thresh =   1.00e-06
Generating Pseudo-Fermi distribution of occupation numbers.
--
# Rescaled active electrons =      9.000
Writing occupation numbers to disk ...
---- Fractional Occupation Number Information End ----


---- Fractional Occupation Number Information ----
Temperature =    300.000 K
Fermi level =   0.024722 Hartree
HOMO-LUMO gap =   0.136225 Hartree
Number of active orbitals = 18
Number of active electrons = 9
EMax =   1.01e-06
thresh =   1.00e-06
Generating Pseudo-Fermi distribution of occupation numbers.
--
# Rescaled active electrons =      9.000
Writing occupation numbers to disk ...
---- Fractional Occupation Number Information End ----

   64   -1104.8340641496      1.01E-06

---- Fractional Occupation Number Information ----
Temperature =    300.000 K
Fermi level =   0.075266 Hartree
HOMO-LUMO gap =   0.036982 Hartree
Number of active orbitals = 18
Number of active electrons = 9
EMax =   6.66e-07
thresh =   1.00e-06
---- Fractional Occupation Number Information End ----


---- Fractional Occupation Number Information ----
Temperature =    300.000 K
Fermi level =   0.024722 Hartree
HOMO-LUMO gap =   0.136224 Hartree
Number of active orbitals = 18
Number of active electrons = 9
EMax =   6.66e-07
thresh =   1.00e-06
---- Fractional Occupation Number Information End ----

   65   -1104.8340685110      6.66E-07

---- Fractional Occupation Number Information ----
Temperature =    300.000 K
Fermi level =   0.075266 Hartree
HOMO-LUMO gap =   0.036983 Hartree
Number of active orbitals = 18
Number of active electrons = 9
EMax =   5.89e-07
thresh =   1.00e-06
---- Fractional Occupation Number Information End ----


---- Fractional Occupation Number Information ----
Temperature =    300.000 K
Fermi level =   0.024722 Hartree
HOMO-LUMO gap =   0.136225 Hartree
Number of active orbitals = 18
Number of active electrons = 9
EMax =   5.89e-07
thresh =   1.00e-06
---- Fractional Occupation Number Information End ----

   66   -1104.8340691437      5.89E-07

---- Fractional Occupation Number Information ----
Temperature =    300.000 K
Fermi level =   0.075266 Hartree
HOMO-LUMO gap =   0.036982 Hartree
Number of active orbitals = 18
Number of active electrons = 9
EMax =   4.93e-07
thresh =   1.00e-06
---- Fractional Occupation Number Information End ----


---- Fractional Occupation Number Information ----
Temperature =    300.000 K
Fermi level =   0.024722 Hartree
HOMO-LUMO gap =   0.136226 Hartree
Number of active orbitals = 18
Number of active electrons = 9
EMax =   4.93e-07
thresh =   1.00e-06
---- Fractional Occupation Number Information End ----

   67   -1104.8340741726      4.93E-07

---- Fractional Occupation Number Information ----
Temperature =    300.000 K
Fermi level =   0.075265 Hartree
HOMO-LUMO gap =   0.036983 Hartree
Number of active orbitals = 18
Number of active electrons = 9
EMax =   8.74e-07
thresh =   1.00e-06
---- Fractional Occupation Number Information End ----


---- Fractional Occupation Number Information ----
Temperature =    300.000 K
Fermi level =   0.024720 Hartree
HOMO-LUMO gap =   0.136225 Hartree
Number of active orbitals = 18
Number of active electrons = 9
EMax =   8.74e-07
thresh =   1.00e-06
---- Fractional Occupation Number Information End ----

   68   -1104.8340767904      8.74E-07

---- Fractional Occupation Number Information ----
Temperature =    300.000 K
Fermi level =   0.075266 Hartree
HOMO-LUMO gap =   0.036983 Hartree
Number of active orbitals = 18
Number of active electrons = 9
EMax =   8.77e-07
thresh =   1.00e-06
---- Fractional Occupation Number Information End ----


---- Fractional Occupation Number Information ----
Temperature =    300.000 K
Fermi level =   0.024722 Hartree
HOMO-LUMO gap =   0.136226 Hartree
Number of active orbitals = 18
Number of active electrons = 9
EMax =   8.77e-07
thresh =   1.00e-06
---- Fractional Occupation Number Information End ----

   69   -1104.8340628610      8.77E-07

---- Fractional Occupation Number Information ----
Temperature =    300.000 K
Fermi level =   0.075266 Hartree
HOMO-LUMO gap =   0.036984 Hartree
Number of active orbitals = 18
Number of active electrons = 9
EMax =   4.87e-07
thresh =   1.00e-06
---- Fractional Occupation Number Information End ----


---- Fractional Occupation Number Information ----
Temperature =    300.000 K
Fermi level =   0.024721 Hartree
HOMO-LUMO gap =   0.136225 Hartree
Number of active orbitals = 18
Number of active electrons = 9
EMax =   4.87e-07
thresh =   1.00e-06
---- Fractional Occupation Number Information End ----

   70   -1104.8340874392      4.87E-07

---- Fractional Occupation Number Information ----
Temperature =    300.000 K
Fermi level =   0.075266 Hartree
HOMO-LUMO gap =   0.036984 Hartree
Number of active orbitals = 18
Number of active electrons = 9
EMax =   9.91e-07
thresh =   1.00e-06
---- Fractional Occupation Number Information End ----


---- Fractional Occupation Number Information ----
Temperature =    300.000 K
Fermi level =   0.024721 Hartree
HOMO-LUMO gap =   0.136225 Hartree
Number of active orbitals = 18
Number of active electrons = 9
EMax =   9.91e-07
thresh =   1.00e-06
---- Fractional Occupation Number Information End ----

   71   -1104.8340718291      9.91E-07

---- Fractional Occupation Number Information ----
Temperature =    300.000 K
Fermi level =   0.075266 Hartree
HOMO-LUMO gap =   0.036983 Hartree
Number of active orbitals = 18
Number of active electrons = 9
EMax =   1.07e-06
thresh =   1.00e-06
Generating Pseudo-Fermi distribution of occupation numbers.
--
# Rescaled active electrons =      9.000
Writing occupation numbers to disk ...
---- Fractional Occupation Number Information End ----


---- Fractional Occupation Number Information ----
Temperature =    300.000 K
Fermi level =   0.024720 Hartree
HOMO-LUMO gap =   0.136223 Hartree
Number of active orbitals = 18
Number of active electrons = 9
EMax =   1.07e-06
thresh =   1.00e-06
Generating Pseudo-Fermi distribution of occupation numbers.
--
# Rescaled active electrons =      9.000
Writing occupation numbers to disk ...
---- Fractional Occupation Number Information End ----

   72   -1104.8340684143      1.07E-06

---- Fractional Occupation Number Information ----
Temperature =    300.000 K
Fermi level =   0.075266 Hartree
HOMO-LUMO gap =   0.036983 Hartree
Number of active orbitals = 18
Number of active electrons = 9
EMax =   1.02e-06
thresh =   1.00e-06
Generating Pseudo-Fermi distribution of occupation numbers.
--
# Rescaled active electrons =      9.000
Writing occupation numbers to disk ...
---- Fractional Occupation Number Information End ----


---- Fractional Occupation Number Information ----
Temperature =    300.000 K
Fermi level =   0.024720 Hartree
HOMO-LUMO gap =   0.136223 Hartree
Number of active orbitals = 18
Number of active electrons = 9
EMax =   1.02e-06
thresh =   1.00e-06
Generating Pseudo-Fermi distribution of occupation numbers.
--
# Rescaled active electrons =      9.000
Writing occupation numbers to disk ...
---- Fractional Occupation Number Information End ----

   73   -1104.8340806615      1.02E-06

---- Fractional Occupation Number Information ----
Temperature =    300.000 K
Fermi level =   0.075266 Hartree
HOMO-LUMO gap =   0.036983 Hartree
Number of active orbitals = 18
Number of active electrons = 9
EMax =   1.07e-06
thresh =   1.00e-06
Generating Pseudo-Fermi distribution of occupation numbers.
--
# Rescaled active electrons =      9.000
Writing occupation numbers to disk ...
---- Fractional Occupation Number Information End ----


---- Fractional Occupation Number Information ----
Temperature =    300.000 K
Fermi level =   0.024720 Hartree
HOMO-LUMO gap =   0.136224 Hartree
Number of active orbitals = 18
Number of active electrons = 9
EMax =   1.07e-06
thresh =   1.00e-06
Generating Pseudo-Fermi distribution of occupation numbers.
--
# Rescaled active electrons =      9.000
Writing occupation numbers to disk ...
---- Fractional Occupation Number Information End ----

   74   -1104.8340807294      1.07E-06

---- Fractional Occupation Number Information ----
Temperature =    300.000 K
Fermi level =   0.075266 Hartree
HOMO-LUMO gap =   0.036983 Hartree
Number of active orbitals = 18
Number of active electrons = 9
EMax =   9.68e-07
thresh =   1.00e-06
---- Fractional Occupation Number Information End ----


---- Fractional Occupation Number Information ----
Temperature =    300.000 K
Fermi level =   0.024720 Hartree
HOMO-LUMO gap =   0.136223 Hartree
Number of active orbitals = 18
Number of active electrons = 9
EMax =   9.68e-07
thresh =   1.00e-06
---- Fractional Occupation Number Information End ----

   75   -1104.8340799519      9.68E-07

---- Fractional Occupation Number Information ----
Temperature =    300.000 K
Fermi level =   0.075267 Hartree
HOMO-LUMO gap =   0.036984 Hartree
Number of active orbitals = 18
Number of active electrons = 9
EMax =   1.03e-06
thresh =   1.00e-06
Generating Pseudo-Fermi distribution of occupation numbers.
--
# Rescaled active electrons =      9.000
Writing occupation numbers to disk ...
---- Fractional Occupation Number Information End ----


---- Fractional Occupation Number Information ----
Temperature =    300.000 K
Fermi level =   0.024722 Hartree
HOMO-LUMO gap =   0.136225 Hartree
Number of active orbitals = 18
Number of active electrons = 9
EMax =   1.03e-06
thresh =   1.00e-06
Generating Pseudo-Fermi distribution of occupation numbers.
--
# Rescaled active electrons =      9.000
Writing occupation numbers to disk ...
---- Fractional Occupation Number Information End ----

   76   -1104.8340882291      1.03E-06

---- Fractional Occupation Number Information ----
Temperature =    300.000 K
Fermi level =   0.075267 Hartree
HOMO-LUMO gap =   0.036985 Hartree
Number of active orbitals = 18
Number of active electrons = 9
EMax =   6.68e-07
thresh =   1.00e-06
---- Fractional Occupation Number Information End ----


---- Fractional Occupation Number Information ----
Temperature =    300.000 K
Fermi level =   0.024723 Hartree
HOMO-LUMO gap =   0.136227 Hartree
Number of active orbitals = 18
Number of active electrons = 9
EMax =   6.68e-07
thresh =   1.00e-06
---- Fractional Occupation Number Information End ----

   77   -1104.8340750570      6.68E-07

---- Fractional Occupation Number Information ----
Temperature =    300.000 K
Fermi level =   0.075269 Hartree
HOMO-LUMO gap =   0.036987 Hartree
Number of active orbitals = 18
Number of active electrons = 9
EMax =   5.40e-07
[...]
EMax =   3.16e-07
thresh =   1.00e-06
---- Fractional Occupation Number Information End ----


---- Fractional Occupation Number Information ----
Temperature =    300.000 K
Fermi level =   0.024743 Hartree
HOMO-LUMO gap =   0.136262 Hartree
Number of active orbitals = 18
Number of active electrons = 9
EMax =   3.16e-07
thresh =   1.00e-06
---- Fractional Occupation Number Information End ----

  170   -1104.8340628880      3.16E-07

---- Fractional Occupation Number Information ----
Temperature =    300.000 K
Fermi level =   0.075285 Hartree
HOMO-LUMO gap =   0.037015 Hartree
Number of active orbitals = 18
Number of active electrons = 9
EMax =   5.62e-07
thresh =   1.00e-06
---- Fractional Occupation Number Information End ----


---- Fractional Occupation Number Information ----
Temperature =    300.000 K
Fermi level =   0.024744 Hartree
HOMO-LUMO gap =   0.136263 Hartree
Number of active orbitals = 18
Number of active electrons = 9
EMax =   5.62e-07
thresh =   1.00e-06
---- Fractional Occupation Number Information End ----

  171   -1104.8340337101      5.62E-07

---- Fractional Occupation Number Information ----
Temperature =    300.000 K
Fermi level =   0.075285 Hartree
HOMO-LUMO gap =   0.037016 Hartree
Number of active orbitals = 18
Number of active electrons = 9
EMax =   9.41e-07
thresh =   1.00e-06
---- Fractional Occupation Number Information End ----


---- Fractional Occupation Number Information ----
Temperature =    300.000 K
Fermi level =   0.024744 Hartree
HOMO-LUMO gap =   0.136263 Hartree
Number of active orbitals = 18
Number of active electrons = 9
EMax =   9.41e-07
thresh =   1.00e-06
---- Fractional Occupation Number Information End ----

  172   -1104.8340167188      9.41E-07

---- Fractional Occupation Number Information ----
Temperature =    300.000 K
Fermi level =   0.075285 Hartree
HOMO-LUMO gap =   0.037015 Hartree
Number of active orbitals = 18
Number of active electrons = 9
EMax =   8.56e-07
thresh =   1.00e-06
---- Fractional Occupation Number Information End ----


---- Fractional Occupation Number Information ----
Temperature =    300.000 K
Fermi level =   0.024744 Hartree
HOMO-LUMO gap =   0.136263 Hartree
Number of active orbitals = 18
Number of active electrons = 9
EMax =   8.56e-07
thresh =   1.00e-06
---- Fractional Occupation Number Information End ----

  173   -1104.8340218541      8.56E-07

---- Fractional Occupation Number Information ----
Temperature =    300.000 K
Fermi level =   0.075284 Hartree
HOMO-LUMO gap =   0.037014 Hartree
Number of active orbitals = 18
Number of active electrons = 9
EMax =   5.50e-07
thresh =   1.00e-06
---- Fractional Occupation Number Information End ----


---- Fractional Occupation Number Information ----
Temperature =    300.000 K
Fermi level =   0.024743 Hartree
HOMO-LUMO gap =   0.136262 Hartree
Number of active orbitals = 18
Number of active electrons = 9
EMax =   5.50e-07
thresh =   1.00e-06
---- Fractional Occupation Number Information End ----

  174   -1104.8340370044      5.50E-07

---- Fractional Occupation Number Information ----
Temperature =    300.000 K
Fermi level =   0.075285 Hartree
HOMO-LUMO gap =   0.037015 Hartree
Number of active orbitals = 18
Number of active electrons = 9
EMax =   5.07e-07
thresh =   1.00e-06
---- Fractional Occupation Number Information End ----


---- Fractional Occupation Number Information ----
Temperature =    300.000 K
Fermi level =   0.024743 Hartree
HOMO-LUMO gap =   0.136262 Hartree
Number of active orbitals = 18
Number of active electrons = 9
EMax =   5.07e-07
thresh =   1.00e-06
---- Fractional Occupation Number Information End ----

  175   -1104.8340659056      5.07E-07

---- Fractional Occupation Number Information ----
Temperature =    300.000 K
Fermi level =   0.075284 Hartree
HOMO-LUMO gap =   0.037015 Hartree
Number of active orbitals = 18
Number of active electrons = 9
EMax =   3.98e-07
thresh =   1.00e-06
---- Fractional Occupation Number Information End ----


---- Fractional Occupation Number Information ----
Temperature =    300.000 K
Fermi level =   0.024744 Hartree
HOMO-LUMO gap =   0.136262 Hartree
Number of active orbitals = 18
Number of active electrons = 9
EMax =   3.98e-07
thresh =   1.00e-06
---- Fractional Occupation Number Information End ----

  176   -1104.8340690140      3.98E-07

---- Fractional Occupation Number Information ----
Temperature =    300.000 K
Fermi level =   0.075284 Hartree
HOMO-LUMO gap =   0.037015 Hartree
Number of active orbitals = 18
Number of active electrons = 9
EMax =   3.49e-07
thresh =   1.00e-06
---- Fractional Occupation Number Information End ----


---- Fractional Occupation Number Information ----
Temperature =    300.000 K
Fermi level =   0.024744 Hartree
HOMO-LUMO gap =   0.136262 Hartree
Number of active orbitals = 18
Number of active electrons = 9
EMax =   3.49e-07
thresh =   1.00e-06
---- Fractional Occupation Number Information End ----

  177   -1104.8340700217      3.49E-07

---- Fractional Occupation Number Information ----
Temperature =    300.000 K
Fermi level =   0.075284 Hartree
HOMO-LUMO gap =   0.037015 Hartree
Number of active orbitals = 18
Number of active electrons = 9
EMax =   2.64e-07
thresh =   1.00e-06
---- Fractional Occupation Number Information End ----


---- Fractional Occupation Number Information ----
Temperature =    300.000 K
Fermi level =   0.024743 Hartree
HOMO-LUMO gap =   0.136262 Hartree
Number of active orbitals = 18
Number of active electrons = 9
EMax =   2.64e-07
thresh =   1.00e-06
---- Fractional Occupation Number Information End ----

  178   -1104.8340645124      2.64E-07

---- Fractional Occupation Number Information ----
Temperature =    300.000 K
Fermi level =   0.075284 Hartree
HOMO-LUMO gap =   0.037015 Hartree
Number of active orbitals = 18
Number of active electrons = 9
EMax =   2.89e-07
thresh =   1.00e-06
---- Fractional Occupation Number Information End ----


---- Fractional Occupation Number Information ----
Temperature =    300.000 K
Fermi level =   0.024743 Hartree
HOMO-LUMO gap =   0.136262 Hartree
Number of active orbitals = 18
Number of active electrons = 9
EMax =   2.89e-07
thresh =   1.00e-06
---- Fractional Occupation Number Information End ----

  179   -1104.8340728622      2.89E-07

---- Fractional Occupation Number Information ----
Temperature =    300.000 K
Fermi level =   0.075284 Hartree
HOMO-LUMO gap =   0.037015 Hartree
Number of active orbitals = 18
Number of active electrons = 9
EMax =   2.86e-07
thresh =   1.00e-06
---- Fractional Occupation Number Information End ----


---- Fractional Occupation Number Information ----
Temperature =    300.000 K
Fermi level =   0.024743 Hartree
HOMO-LUMO gap =   0.136262 Hartree
Number of active orbitals = 18
Number of active electrons = 9
EMax =   2.86e-07
thresh =   1.00e-06
---- Fractional Occupation Number Information End ----

  180   -1104.8340729310      2.86E-07

---- Fractional Occupation Number Information ----
Temperature =    300.000 K
Fermi level =   0.075284 Hartree
HOMO-LUMO gap =   0.037015 Hartree
Number of active orbitals = 18
Number of active electrons = 9
EMax =   2.91e-07
thresh =   1.00e-06
---- Fractional Occupation Number Information End ----


---- Fractional Occupation Number Information ----
Temperature =    300.000 K
Fermi level =   0.024743 Hartree
HOMO-LUMO gap =   0.136262 Hartree
Number of active orbitals = 18
Number of active electrons = 9
EMax =   2.91e-07
thresh =   1.00e-06
---- Fractional Occupation Number Information End ----

  181   -1104.8340730364      2.91E-07

---- Fractional Occupation Number Information ----
Temperature =    300.000 K
Fermi level =   0.075284 Hartree
HOMO-LUMO gap =   0.037015 Hartree
Number of active orbitals = 18
Number of active electrons = 9
EMax =   3.17e-07
thresh =   1.00e-06
---- Fractional Occupation Number Information End ----


---- Fractional Occupation Number Information ----
Temperature =    300.000 K
Fermi level =   0.024743 Hartree
HOMO-LUMO gap =   0.136262 Hartree
Number of active orbitals = 18
Number of active electrons = 9
EMax =   3.17e-07
thresh =   1.00e-06
---- Fractional Occupation Number Information End ----

  182   -1104.8340755890      3.17E-07

---- Fractional Occupation Number Information ----
Temperature =    300.000 K
Fermi level =   0.075284 Hartree
HOMO-LUMO gap =   0.037014 Hartree
Number of active orbitals = 18
Number of active electrons = 9
EMax =   3.88e-07
thresh =   1.00e-06
---- Fractional Occupation Number Information End ----


---- Fractional Occupation Number Information ----
Temperature =    300.000 K
Fermi level =   0.024743 Hartree
HOMO-LUMO gap =   0.136262 Hartree
Number of active orbitals = 18
Number of active electrons = 9
EMax =   3.88e-07
thresh =   1.00e-06
---- Fractional Occupation Number Information End ----

  183   -1104.8340822194      3.88E-07

---- Fractional Occupation Number Information ----
Temperature =    300.000 K
Fermi level =   0.075284 Hartree
HOMO-LUMO gap =   0.037014 Hartree
Number of active orbitals = 18
Number of active electrons = 9
EMax =   4.39e-07
thresh =   1.00e-06
---- Fractional Occupation Number Information End ----


---- Fractional Occupation Number Information ----
Temperature =    300.000 K
Fermi level =   0.024743 Hartree
HOMO-LUMO gap =   0.136262 Hartree
Number of active orbitals = 18
Number of active electrons = 9
EMax =   4.39e-07
thresh =   1.00e-06
---- Fractional Occupation Number Information End ----

  184   -1104.8340761933      4.39E-07

---- Fractional Occupation Number Information ----
Temperature =    300.000 K
Fermi level =   0.075284 Hartree
HOMO-LUMO gap =   0.037014 Hartree
Number of active orbitals = 18
Number of active electrons = 9
EMax =   5.00e-07
thresh =   1.00e-06
---- Fractional Occupation Number Information End ----


---- Fractional Occupation Number Information ----
Temperature =    300.000 K
Fermi level =   0.024743 Hartree
HOMO-LUMO gap =   0.136262 Hartree
Number of active orbitals = 18
Number of active electrons = 9
EMax =   5.00e-07
thresh =   1.00e-06
---- Fractional Occupation Number Information End ----

  185   -1104.8340753292      5.00E-07

---- Fractional Occupation Number Information ----
Temperature =    300.000 K
Fermi level =   0.075284 Hartree
HOMO-LUMO gap =   0.037014 Hartree
Number of active orbitals = 18
Number of active electrons = 9
EMax =   3.73e-07
thresh =   1.00e-06
---- Fractional Occupation Number Information End ----


---- Fractional Occupation Number Information ----
Temperature =    300.000 K
Fermi level =   0.024743 Hartree
HOMO-LUMO gap =   0.136261 Hartree
Number of active orbitals = 18
Number of active electrons = 9
EMax =   3.73e-07
thresh =   1.00e-06
---- Fractional Occupation Number Information End ----

  186   -1104.8340798698      3.73E-07

---- Fractional Occupation Number Information ----
Temperature =    300.000 K
Fermi level =   0.075284 Hartree
HOMO-LUMO gap =   0.037015 Hartree
Number of active orbitals = 18
Number of active electrons = 9
EMax =   3.82e-07
thresh =   1.00e-06
---- Fractional Occupation Number Information End ----


---- Fractional Occupation Number Information ----
Temperature =    300.000 K
Fermi level =   0.024743 Hartree
HOMO-LUMO gap =   0.136261 Hartree
Number of active orbitals = 18
Number of active electrons = 9
EMax =   3.82e-07
thresh =   1.00e-06
---- Fractional Occupation Number Information End ----

  187   -1104.8340794646      3.82E-07

---- Fractional Occupation Number Information ----
Temperature =    300.000 K
Fermi level =   0.075284 Hartree
HOMO-LUMO gap =   0.037015 Hartree
Number of active orbitals = 18
Number of active electrons = 9
EMax =   9.17e-07
thresh =   1.00e-06
---- Fractional Occupation Number Information End ----


---- Fractional Occupation Number Information ----
Temperature =    300.000 K
Fermi level =   0.024743 Hartree
HOMO-LUMO gap =   0.136262 Hartree
Number of active orbitals = 18
Number of active electrons = 9
EMax =   9.17e-07
thresh =   1.00e-06
---- Fractional Occupation Number Information End ----

  188   -1104.8340678011      9.17E-07

---- Fractional Occupation Number Information ----
Temperature =    300.000 K
Fermi level =   0.075284 Hartree
HOMO-LUMO gap =   0.037015 Hartree
Number of active orbitals = 18
Number of active electrons = 9
EMax =   8.47e-07
thresh =   1.00e-06
---- Fractional Occupation Number Information End ----


---- Fractional Occupation Number Information ----
Temperature =    300.000 K
Fermi level =   0.024743 Hartree
HOMO-LUMO gap =   0.136262 Hartree
Number of active orbitals = 18
Number of active electrons = 9
EMax =   8.47e-07
thresh =   1.00e-06
---- Fractional Occupation Number Information End ----

  189   -1104.8340760591      8.47E-07

---- Fractional Occupation Number Information ----
Temperature =    300.000 K
Fermi level =   0.075284 Hartree
HOMO-LUMO gap =   0.037014 Hartree
Number of active orbitals = 18
Number of active electrons = 9
EMax =   3.08e-07
thresh =   1.00e-06
---- Fractional Occupation Number Information End ----


---- Fractional Occupation Number Information ----
Temperature =    300.000 K
Fermi level =   0.024743 Hartree
HOMO-LUMO gap =   0.136262 Hartree
Number of active orbitals = 18
Number of active electrons = 9
EMax =   3.08e-07
thresh =   1.00e-06
---- Fractional Occupation Number Information End ----

  190   -1104.8340811083      3.08E-07

---- Fractional Occupation Number Information ----
Temperature =    300.000 K
Fermi level =   0.075284 Hartree
HOMO-LUMO gap =   0.037014 Hartree
Number of active orbitals = 18
Number of active electrons = 9
EMax =   4.15e-07
thresh =   1.00e-06
---- Fractional Occupation Number Information End ----


---- Fractional Occupation Number Information ----
Temperature =    300.000 K
Fermi level =   0.024743 Hartree
HOMO-LUMO gap =   0.136262 Hartree
Number of active orbitals = 18
Number of active electrons = 9
EMax =   4.15e-07
thresh =   1.00e-06
---- Fractional Occupation Number Information End ----

  191   -1104.8340782797      4.15E-07

---- Fractional Occupation Number Information ----
Temperature =    300.000 K
Fermi level =   0.075284 Hartree
HOMO-LUMO gap =   0.037013 Hartree
Number of active orbitals = 18
Number of active electrons = 9
EMax =   5.50e-07
thresh =   1.00e-06
---- Fractional Occupation Number Information End ----


---- Fractional Occupation Number Information ----
Temperature =    300.000 K
Fermi level =   0.024743 Hartree
HOMO-LUMO gap =   0.136262 Hartree
Number of active orbitals = 18
Number of active electrons = 9
EMax =   5.50e-07
thresh =   1.00e-06
---- Fractional Occupation Number Information End ----

  192   -1104.8340711579      5.50E-07

---- Fractional Occupation Number Information ----
Temperature =    300.000 K
Fermi level =   0.075284 Hartree
HOMO-LUMO gap =   0.037013 Hartree
Number of active orbitals = 18
Number of active electrons = 9
EMax =   4.89e-07
thresh =   1.00e-06
---- Fractional Occupation Number Information End ----


---- Fractional Occupation Number Information ----
Temperature =    300.000 K
Fermi level =   0.024743 Hartree
HOMO-LUMO gap =   0.136261 Hartree
Number of active orbitals = 18
Number of active electrons = 9
EMax =   4.89e-07
thresh =   1.00e-06
---- Fractional Occupation Number Information End ----

  193   -1104.8340780576      4.89E-07

---- Fractional Occupation Number Information ----
Temperature =    300.000 K
Fermi level =   0.075284 Hartree
HOMO-LUMO gap =   0.037014 Hartree
Number of active orbitals = 18
Number of active electrons = 9
EMax =   6.61e-07
thresh =   1.00e-06
---- Fractional Occupation Number Information End ----


---- Fractional Occupation Number Information ----
Temperature =    300.000 K
Fermi level =   0.024743 Hartree
HOMO-LUMO gap =   0.136262 Hartree
Number of active orbitals = 18
Number of active electrons = 9
EMax =   6.61e-07
thresh =   1.00e-06
---- Fractional Occupation Number Information End ----

  194   -1104.8340823562      6.61E-07

---- Fractional Occupation Number Information ----
Temperature =    300.000 K
Fermi level =   0.075284 Hartree
HOMO-LUMO gap =   0.037014 Hartree
Number of active orbitals = 18
Number of active electrons = 9
EMax =   7.09e-07
thresh =   1.00e-06
---- Fractional Occupation Number Information End ----


---- Fractional Occupation Number Information ----
Temperature =    300.000 K
Fermi level =   0.024743 Hartree
HOMO-LUMO gap =   0.136261 Hartree
Number of active orbitals = 18
Number of active electrons = 9
EMax =   7.09e-07
thresh =   1.00e-06
---- Fractional Occupation Number Information End ----

  195   -1104.8340801712      7.09E-07

---- Fractional Occupation Number Information ----
Temperature =    300.000 K
Fermi level =   0.075284 Hartree
HOMO-LUMO gap =   0.037014 Hartree
Number of active orbitals = 18
Number of active electrons = 9
EMax =   1.55e-07
thresh =   1.00e-06
---- Fractional Occupation Number Information End ----


---- Fractional Occupation Number Information ----
Temperature =    300.000 K
Fermi level =   0.024743 Hartree
HOMO-LUMO gap =   0.136261 Hartree
Number of active orbitals = 18
Number of active electrons = 9
EMax =   1.55e-07
thresh =   1.00e-06
---- Fractional Occupation Number Information End ----

  196   -1104.8340663482      1.55E-07

---- Fractional Occupation Number Information ----
Temperature =    300.000 K
Fermi level =   0.075284 Hartree
HOMO-LUMO gap =   0.037014 Hartree
Number of active orbitals = 18
Number of active electrons = 9
EMax =   2.69e-07
thresh =   1.00e-06
---- Fractional Occupation Number Information End ----


---- Fractional Occupation Number Information ----
Temperature =    300.000 K
Fermi level =   0.024743 Hartree
HOMO-LUMO gap =   0.136261 Hartree
Number of active orbitals = 18
Number of active electrons = 9
EMax =   2.69e-07
thresh =   1.00e-06
---- Fractional Occupation Number Information End ----

  197   -1104.8340697758      2.69E-07

---- Fractional Occupation Number Information ----
Temperature =    300.000 K
Fermi level =   0.075284 Hartree
HOMO-LUMO gap =   0.037014 Hartree
Number of active orbitals = 18
Number of active electrons = 9
EMax =   6.29e-07
thresh =   1.00e-06
---- Fractional Occupation Number Information End ----


---- Fractional Occupation Number Information ----
Temperature =    300.000 K
Fermi level =   0.024743 Hartree
HOMO-LUMO gap =   0.136261 Hartree
Number of active orbitals = 18
Number of active electrons = 9
EMax =   6.29e-07
thresh =   1.00e-06
---- Fractional Occupation Number Information End ----

  198   -1104.8340707284      6.29E-07

---- Fractional Occupation Number Information ----
Temperature =    300.000 K
Fermi level =   0.075285 Hartree
HOMO-LUMO gap =   0.037015 Hartree
Number of active orbitals = 18
Number of active electrons = 9
EMax =   4.59e-07
thresh =   1.00e-06
---- Fractional Occupation Number Information End ----


---- Fractional Occupation Number Information ----
Temperature =    300.000 K
Fermi level =   0.024743 Hartree
HOMO-LUMO gap =   0.136262 Hartree
Number of active orbitals = 18
Number of active electrons = 9
EMax =   4.59e-07
thresh =   1.00e-06
---- Fractional Occupation Number Information End ----

  199   -1104.8340758862      4.59E-07

---- Fractional Occupation Number Information ----
Temperature =    300.000 K
Fermi level =   0.075284 Hartree
HOMO-LUMO gap =   0.037014 Hartree
Number of active orbitals = 18
Number of active electrons = 9
EMax =   5.16e-07
thresh =   1.00e-06
---- Fractional Occupation Number Information End ----


---- Fractional Occupation Number Information ----
Temperature =    300.000 K
Fermi level =   0.024743 Hartree
HOMO-LUMO gap =   0.136261 Hartree
Number of active orbitals = 18
Number of active electrons = 9
EMax =   5.16e-07
thresh =   1.00e-06
---- Fractional Occupation Number Information End ----

  200   -1104.8340778335      5.16E-07    Convergence failure

 Q-Chem fatal error occurred in module /project/projectdirs/jcesr/qchem/qc44/cnl_qc441/compile/cori/qc_src/scfman/scfman.C, line 4525:

 SCF failed to converge

