srun -N 1 --ntasks-per-node 16 --nodelist nid01048 /global/project/projectdirs/jcesr/qchem/qc44/cnl_qc441/dist/exe/qcprog.cori.exe .pt_charged_dft_10.0.in.12441.qcin.1 /dev/shm/eg_qchem/qchem12441/
Process 0 of 16 is on nid01048 - thread support 0
Process 1 of 16 is on nid01048 - thread support 0
Process 2 of 16 is on nid01048 - thread support 0
Process 3 of 16 is on nid01048 - thread support 0
Process 4 of 16 is on nid01048 - thread support 0
Process 5 of 16 is on nid01048 - thread support 0
Process 6 of 16 is on nid01048 - thread support 0
Process 15 of 16 is on nid01048 - thread support 0
initial socket setup ...start
initial socket setup ...done 
now start server 0 ... 
nid01048 10.128.4
Q-Chem Developer Version! Running on 10.128.4.*
                  Welcome to Q-Chem
     A Quantum Leap Into The Future Of Chemistry


 Q-Chem 4.4, Q-Chem, Inc., Pleasanton, CA (2016)

 Y. Shao,  Z. Gan,  E. Epifanovsky,  A. T. B. Gilbert,  M. Wormit,  
 J. Kussmann,  A. W. Lange,  A. Behn,  J. Deng,  X. Feng,  D. Ghosh,  
 M. Goldey,  P. R. Horn,  L. D. Jacobson,  I. Kaliman,  F.Rob,  
 R. Z. Khaliullin,  T. Kus,  A. Landau,  J. Liu,  E. I. Proynov,  Y. M. Rhee,  
 R. M. Richard,  M. A. Rohrdanz,  R. P. Steele,  E. J. Sundstrom,  
 H. L. Woodcock III,  P. M. Zimmerman,  D. Zuev,  B. Albrecht,  E. Alguire,  
 B. Austin,  S. A. Baeppler,  G. J. O. Beran,  Y. A. Bernard,  E. Berquist,  
 K. Brandhorst,  K. B. Bravaya,  S. T. Brown,  D. Casanova,  C.-M. Chang,  
 Y. Chen,  S. H. Chien,  K. D. Closser,  M. P. Coons,  D. L. Crittenden,  
 S. Dasgupta,  M. Diedenhofen,  R. A. DiStasio Jr.,  H. Do,  A. D. Dutoi,  
 R. G. Edgar,  P.-T. Fang,  S. Fatehi,  Q. Feng,  L. Fusti-Molnar,  
 A. Ghysels,  A. Golubeva-Zadorozhnaya,  J. Gomes,  A. Gunina,  
 M. W. D. Hanson-Heine,  P. H. P. Harbach,  A. W. Hauser,  E. G. Hohenstein,  
 Z. C. Holden,  K. Hui,  T.-C. Jagau,  H. Ji,  B. Kaduk,  K. Khistyaev,  
 Jaehoon Kim,  Jihan Kim,  R. A. King,  P. Klunzinger,  D. Kosenkov,  
 T. Kowalczyk,  C. M. Krauter,  A. Kunitsa,  K. U. Lao,  A. Laurent,  
 K. V. Lawler,  D. Lefrancois,  S. Lehtola,  S. V. Levchenko,  C. Y. Lin,  
 Y.-S. Lin,  F. Liu,  E. Livshits,  R. C. Lochan,  A. Luenser,  P. Manohar,  
 S. F. Manzer,  S.-P. Mao,  Y. Mao,  N. Mardirossian,  A. V. Marenich,  
 L. A. Martinez-Martinez,  S. A. Maurer,  N. J. Mayhall,  J.-M. Mewes,  
 A. F. Morrison,  K. Nanda,  C. M. Oana,  R. Olivares-Amaya,  D. P. O'Neill,  
 J. A. Parkhill,  T. M. Perrine,  R. Peverati,  P. A. Pieniazek,  F. Plasser,  
 A. Prociuk,  D. R. Rehn,  E. Rosta,  N. J. Russ,  N. Sergueev,  
 S. M. Sharada,  S. Sharma,  D. W. Small,  A. Sodt,  T. Stauch,  T. Stein,  
 D. Stuck,  Y.-C. Su,  A. J. W. Thom,  T. Tsuchimochi,  L. Vogt,  O. Vydrov,  
 T. Wang,  M. A. Watson,  J. Wenzel,  A. White,  C. F. Williams,  
 V. Vanovschi,  S. Yeganeh,  S. R. Yost,  Z.-Q. You,  I. Y. Zhang,  X. Zhang,  
 Y. Zhao,  B. R. Brooks,  G. K. L. Chan,  D. M. Chipman,  C. J. Cramer,  
 W. A. Goddard III,  M. S. Gordon,  W. J. Hehre,  A. Klamt,  
 H. F. Schaefer III,  M. W. Schmidt,  C. D. Sherrill,  D. G. Truhlar,  
 A. Warshel,  X. Xu,  A. Aspuru-Guzik,  R. Baer,  A. T. Bell,  N. A. Besley,  
 J.-D. Chai,  A. Dreuw,  B. D. Dunietz,  T. R. Furlani,  S. R. Gwaltney,  
 C.-P. Hsu,  Y. Jung,  J. Kong,  D. S. Lambrecht,  W. Liang,  C. Ochsenfeld,  
 V. A. Rassolov,  L. V. Slipchenko,  J. E. Subotnik,  T. Van Voorhis,  
 J. M. Herbert,  A. I. Krylov,  P. M. W. Gill,  M. Head-Gordon

 Contributors to earlier versions of Q-Chem not listed above: 
 R. D. Adamson,  J. Baker,  E. F. C. Byrd,  A. K. Chakraborty,  C.-L. Cheng,  
 H. Dachsel,  R. J. Doerksen,  G. Hawkins,  A. Heyden,  S. Hirata,  
 G. Kedziora,  F. J. Keil,  C. Kelley,  P. P. Korambath,  W. Kurlancheek,  
 A. M. Lee,  M. S. Lee,  D. Liotard,  I. Lotan,  P. E. Maslen,  N. Nair,  
 D. Neuhauser,  R. Olson,  B. Peters,  J. Ritchie,  N. E. Schultz,  
 N. Shenvi,  A. C. Simmonett,  K. S. Thanthiriwatte,  Q. Wu,  W. Zhang

 Please cite Q-Chem as follows:
 Y. Shao et al., Mol. Phys. 113, 184-215 (2015)
 DOI: 10.1080/00268976.2014.952696

 Q-Chem 4.4.1 for Intel X86 EM64T Linux

 Parts of Q-Chem use Armadillo 5.200.1 (Boston Tea Smuggler).
 http://arma.sourceforge.net/

 Q-Chem begins on Tue Sep  6 22:56:21 2016  

Host: nid01047
0

     Scratch files written to /dev/shm/eg_qchem/qchem12441.0//
 Parallel job on  16  processors

Checking the input file for inconsistencies... 	...done.

--------------------------------------------------------------
User input:
--------------------------------------------------------------
$molecule
 -1  2
 S           1.83794975       -1.27576249       -0.14871336
 C           3.23937819       -0.19806434       -0.14823333
 C           2.83626844        1.12431397       -0.14890172
 C           1.43724334        1.31134696       -0.14931220
 C           0.69606563        0.10654716       -0.14908151
 H           0.95807640        2.28459073       -0.14860036
 C          -0.69610330       -0.10652413       -0.14907621
 S          -1.37582008       -1.74392539        0.11847122
 C          -1.76121588        0.80520302       -0.33662835
 C          -3.03344620       -1.14767804       -0.03052517
 C          -3.04116309        0.21420439       -0.26801003
 H          -3.96205569        0.77948792       -0.39119595
 H           4.24016475       -0.60708034       -0.14954918
 H           3.54430111        1.94981573       -0.14910914
 H          -3.86740404       -1.82868819        0.06750066
 H          -1.59266717        1.86147786       -0.51740366
$end


$rem
         jobtype = opt
        exchange = b3lyp
           basis = 6-31++g**
  max_scf_cycles = 100
      mem_static = 100
       mem_total = 1500
$end


$opt
CONSTRAINT
tors 4 5 7 9 10.0
ENDCONSTRAINT
$end

--------------------------------------------------------------
 Atom   8: ( -1.6252354641,  0.1154550024,  1.1646360470)
         ->( -1.6252354572,  0.1154549611,  1.1646360488)
 Atom  10: ( -3.1726130109,  0.0226598108,  0.3146672475)
         ->( -3.1726130161,  0.0226599880,  0.3146672326)
 Atom  11: ( -2.9728524113, -0.0939172039, -1.0483029887)
         ->( -2.9728524099, -0.0939173149, -1.0483029596)
 Atom   9: ( -1.6179227802, -0.1125987354, -1.4433592002)
         ->( -1.6179227834, -0.1125987299, -1.4433592217)
 Atom   7: ( -0.7041435308, -0.0080814964, -0.3686635971)
         ->( -0.7041435372, -0.0080813773, -0.3686636269)
 Atom  16: ( -1.2904876268, -0.1999374681, -2.4738751312)
         ->( -1.2904876255, -0.1999373649, -2.4738751503)
 Atom  14: (  3.7968613681,  0.1651069906, -1.7544932508)
         ->(  3.7968613387,  0.1651066790, -1.7544933080)
 Atom  15: ( -4.1005120287,  0.0618718420,  0.8681429887)
         ->( -4.1005120309,  0.0618715676,  0.8681430032)
 ----------------------------------------------------------------
             Standard Nuclear Orientation (Angstroms)
    I     Atom           X                Y                Z
 ----------------------------------------------------------------
    1      S       1.6252354572    -0.1154549611     1.1646360488
    2      C       3.1726130161    -0.0226599880     0.3146672326
    3      C       2.9728524099     0.0939173149    -1.0483029596
    4      C       1.6179227834     0.1125987299    -1.4433592217
    5      C       0.7041435372     0.0080813773    -0.3686636269
    6      H       1.2904876255     0.1999373649    -2.4738751503
    7      C      -0.7041435372    -0.0080813773    -0.3686636269
    8      S      -1.6252354572     0.1154549611     1.1646360488
    9      C      -1.6179227834    -0.1125987299    -1.4433592217
   10      C      -3.1726130161     0.0226599880     0.3146672326
   11      C      -2.9728524099    -0.0939173149    -1.0483029596
   12      H      -3.7968613387    -0.1651066790    -1.7544933080
   13      H       4.1005120309    -0.0618715676     0.8681430032
   14      H       3.7968613387     0.1651066790    -1.7544933080
   15      H      -4.1005120309     0.0618715676     0.8681430032
   16      H      -1.2904876255    -0.1999373649    -2.4738751503
 ----------------------------------------------------------------
 Molecular Point Group                 C2    NOp =  2
 Largest Abelian Subgroup              C2    NOp =  2
 Nuclear Repulsion Energy =   627.8090836152 hartrees
 There are       44 alpha and       43 beta electrons
 Requested basis set is 6-31++G(d,p)
 There are 76 shells and 234 basis functions

 Total QAlloc Memory Limit   1500 MB
 Mega-Array Size        98 MB
 MEM_STATIC part       100 MB
 A cutoff of  1.0D-11 yielded   2489 shell pairs
 There are     24591 function pairs
 
 -------------------------------------------------------
 OpenMP Integral Computing Module                       
 Release: version 1.0, May 2013, Q-Chem Inc. Pittsburgh 
 -------------------------------------------------------
 Integral Job Info:
 Integral job number is                      11
 Integral operator is                         1
 short-range coefficients                     0
 long-range coefficients              100000000
 Omega coefficients                           0
 if combine SR and LR in K                    0
 Integral screening is                        0
 Integral computing path is                   2
 max size of driver memory is            800000
 size of driver memory is                593474
 size of scratch memory is             15166112
 max col of scratch BK array               1296
 max len of scratch array in speh3          155
 max len of scratch index in speh4           18
 max int batch size is                      520
 min int batch size is                       52
 fixed nKL is                                52
 max L of basis functions is                  2
 order of int derivative is                   0
 number of shells is                         76
 number of basis is                         234
 number of cartesian basis is               234
 number of contracted shell pairs          2489
 number of primitive shell pairs           8049
 maxK2 (contraction) of shell pair           36
 max number of K2 of shell pair               1
 max number of CS2 of shell pair            258
 max number of PS2 of shell pair           1500
 mem total for path MDJ                   51992
 -------------------------------------------------------
 Smallest overlap matrix eigenvalue = 6.12E-07

 Q-Chem warning in module /project/projectdirs/jcesr/qchem/qc44/cnl_qc441/compile/cori/qc_src/stvman/mkSTV.C, line 257:

 Overlap eigenvalue is smaller than square root of threshold

 Linear dependence detected in AO basis
 Number of orthogonalized atomic orbitals = 233
 Maximum deviation from orthogonality = 4.548E-11

 Scale SEOQF with 1.000000e-01/1.000000e-01/1.000000e-01

 Standard Electronic Orientation quadrupole field applied
 Nucleus-field energy     =     0.0000000037 hartrees
 Guess from superposition of atomic densities
 Warning:  Energy on first SCF cycle will be non-variational
 An unrestricted hybrid HF-DFT SCF calculation will be
 performed using Pulay DIIS extrapolation
 Exchange:     0.2000 Hartree-Fock + 0.0800 Slater + 0.7200 B88
 Correlation:  0.1900 VWN1RPA + 0.8100 LYP
 Using SG-1 standard quadrature grid
 SCF converges when DIIS error is below 1.0E-08
 Inaccurate integrated density:
   Number of electrons =    87
   Numerical integral  =    86.000527345316
   Relative error      =    -1.1488191433 %
 ---------------------------------------
  Cycle       Energy         DIIS Error
 ---------------------------------------
    1   -1106.9997102607      4.30E-02
    2   -1060.0424421303      1.11E-01
    3   -1198.4523241961      5.50E-01
    4   -1233.3309465599      7.09E-01
    5   -1140.9319520356      1.45E-01
    6   -1115.8827328974      4.72E-02
    7   -1084.9702723711      2.47E-02
    8   -1099.1381445221      4.89E-02
    9   -1100.0381785786      4.54E-02
   10   -1100.6164221329      3.74E-02
   11   -1098.2596863963      4.84E-02
   12   -1104.0181903791      9.32E-03
   13   -1104.7321115781      3.48E-03
   14   -1104.7400199562      3.56E-03
   15   -1104.8401271793      7.46E-04
   16   -1104.8431130163      3.78E-04
   17   -1104.8440569155      8.23E-05
   18   -1104.8440637389      4.41E-05
   19   -1104.8440560913      2.03E-05
   20   -1104.8440516643      4.96E-06
   21   -1104.8440497827      2.79E-06
   22   -1104.8440508475      4.80E-07
   23   -1104.8440515095      2.57E-07
   24   -1104.8440495575      2.00E-07
   25   -1104.8440507536      5.80E-08
   26   -1104.8440514270      1.05E-07
   27   -1104.8440519596      1.02E-07
   28   -1104.8440520316      1.08E-07
   29   -1104.8440507526      1.80E-07
   30   -1104.8440514238      4.65E-08
   31   -1104.8440509420      4.12E-08
   32   -1104.8440510747      4.53E-08
   33   -1104.8440518786      1.13E-07
   34   -1104.8440526883      1.40E-07
   35   -1104.8440523654      9.27E-08
   36   -1104.8440524617      1.38E-07
   37   -1104.8440526566      1.54E-07
   38   -1104.8440531567      1.69E-07
   39   -1104.8440534539      1.80E-07
   40   -1104.8440532979      1.81E-07
   41   -1104.8440532398      1.96E-07
   42   -1104.8440519298      8.07E-08
   43   -1104.8440517508      4.61E-08
   44   -1104.8440520497      1.04E-07
   45   -1104.8440512018      7.44E-08
   46   -1104.8440517611      1.37E-07
   47   -1104.8440526828      2.60E-07
   48   -1104.8440526090      2.11E-07
   49   -1104.8440512567      5.07E-08
   50   -1104.8440505647      9.32E-08
   51   -1104.8440509079      1.28E-07
   52   -1104.8440525080      1.98E-07
   53   -1104.8440522367      1.34E-07
   54   -1104.8440520676      6.32E-08
   55   -1104.8440501470      1.26E-07
   56   -1104.8440507197      4.50E-08
   57   -1104.8440511568      1.02E-08
   58   -1104.8440519033      6.64E-08
   59   -1104.8440518014      5.51E-08
   60   -1104.8440510393      1.26E-08
   61   -1104.8440510090      1.36E-08
   62   -1104.8440513098      1.75E-08
   63   -1104.8440513278      1.36E-08
   64   -1104.8440511273      1.92E-08
   65   -1104.8440509088      2.84E-08
   66   -1104.8440512203      1.30E-08
   67   -1104.8440519245      4.79E-08
   68   -1104.8440537012      2.35E-07
   69   -1104.8440525448      1.18E-07
   70   -1104.8440534689      2.07E-07
   71   -1104.8440535400      2.18E-07
   72   -1104.8440532611      1.93E-07
   73   -1104.8440515596      6.51E-08
   74   -1104.8440521778      1.07E-07
   75   -1104.8440513430      1.05E-08
   76   -1104.8440512018      2.04E-08
   77   -1104.8440514912      4.83E-08
   78   -1104.8440510875      1.45E-08
   79   -1104.8440513094      1.96E-08
   80   -1104.8440507698      2.61E-08
   81   -1104.8440509319      3.15E-08
   82   -1104.8440509423      3.09E-08
   83   -1104.8440509592      2.05E-08
   84   -1104.8440509374      1.59E-08
   85   -1104.8440510067      1.98E-08
   86   -1104.8440510902      1.50E-08
   87   -1104.8440509517      1.97E-08
   88   -1104.8440510396      1.45E-08
   89   -1104.8440509948      1.48E-08
   90   -1104.8440509977      1.52E-08
   91   -1104.8440509687      1.32E-08
   92   -1104.8440509125      1.50E-08
   93   -1104.8440508774      1.89E-08
   94   -1104.8440509071      9.36E-09 Convergence criterion met
 ---------------------------------------
 <S^2> = 0.7627
 SCF time:  CPU 44.76 s  wall 38.56 s
 SCF   energy in the final basis set = -1104.8440509071
 Total energy in the final basis set = -1104.8440509071
 
 --------------------------------------------------------------
             Orbital Energies (a.u.) and Symmetries
 --------------------------------------------------------------
 
 Alpha MOs, Unrestricted
 -- Occupied --                  
-88.750 -88.750 -10.064 -10.064 -10.056 -10.056 -10.048 -10.048
  1 B     1 A     2 A     2 B     3 B     3 A     4 B     4 A                  
-10.033 -10.033  -7.809  -7.809  -5.773  -5.773  -5.770  -5.770
  5 B     5 A     6 B     6 A     7 B     7 A     8 B     8 A                  
 -5.766  -5.766  -0.724  -0.702  -0.606  -0.582  -0.570  -0.536
  9 A     9 B    10 A    10 B    11 A    12 A    11 B    12 B                  
 -0.447  -0.416  -0.393  -0.368  -0.364  -0.314  -0.261  -0.254
 13 A    14 A    13 B    14 B    15 A    15 B    16 A    17 A                  
 -0.245  -0.241  -0.239  -0.209  -0.206  -0.197  -0.175  -0.127
 16 B    17 B    18 A    19 A    18 B    20 A    19 B    20 B                  
 -0.110  -0.100  -0.050   0.047
 21 B    21 A    22 A    22 B                                                  
 -- Virtual --                   
  0.093   0.097   0.109   0.115   0.124   0.144   0.148   0.150
 23 A    23 B    24 A    24 B    25 A    26 A    25 B    27 A                  
  0.152   0.164   0.165   0.173   0.176   0.178   0.188   0.199
 28 A    26 B    29 A    27 B    28 B    30 A    29 B    30 B                  
  0.206   0.209   0.212   0.216   0.217   0.228   0.229   0.233
 31 A    32 A    31 B    33 A    32 B    34 A    33 B    35 A                  
  0.234   0.235   0.240   0.249   0.256   0.262   0.267   0.268
 34 B    36 A    37 A    35 B    38 A    39 A    36 B    40 A                  
  0.276   0.279   0.281   0.286   0.294   0.306   0.308   0.315
 41 A    37 B    38 B    39 B    40 B    41 B    42 A    43 A                  
  0.317   0.318   0.325   0.328   0.338   0.348   0.361   0.378
 42 B    44 A    45 A    46 A    43 B    44 B    47 A    45 B                  
  0.393   0.393   0.399   0.412   0.427   0.434   0.442   0.450
 48 A    46 B    49 A    47 B    48 B    50 A    51 A    49 B                  
  0.454   0.474   0.480   0.496   0.519   0.527   0.576   0.587
 52 A    50 B    53 A    51 B    54 A    52 B    53 B    55 A                  
  0.610   0.639   0.687   0.702   0.706   0.711   0.729   0.743
 56 A    54 B    57 A    55 B    56 B    58 A    57 B    59 A                  
  0.764   0.798   0.805   0.811   0.827   0.828   0.833   0.857
 60 A    58 B    61 A    59 B    60 B    62 A    63 A    64 A                  
  0.867   0.870   0.874   0.885   0.907   0.919   0.938   0.954
 61 B    65 A    62 B    63 B    66 A    64 B    67 A    65 B                  
  0.976   0.987   1.007   1.032   1.071   1.077   1.098   1.105
 66 B    68 A    67 B    69 A    68 B    70 A    71 A    69 B                  
  1.114   1.121   1.122   1.128   1.150   1.155   1.158   1.176
 72 A    70 B    71 B    73 A    72 B    73 B    74 A    75 A                  
  1.182   1.228   1.235   1.261   1.263   1.281   1.313   1.338
 76 A    74 B    77 A    78 A    75 B    76 B    79 A    80 A                  
  1.350   1.358   1.395   1.419   1.493   1.505   1.508   1.512
 77 B    78 B    81 A    79 B    80 B    82 A    81 B    83 A                  
  1.527   1.530   1.615   1.656   1.691   1.722   1.753   1.794
 82 B    84 A    83 B    85 A    84 B    86 A    85 B    86 B                  
  1.843   1.858   1.968   1.985   2.030   2.056   2.073   2.087
 87 A    87 B    88 A    89 A    90 A    88 B    89 B    91 A                  
  2.142   2.143   2.162   2.163   2.212   2.238   2.262   2.279
 90 B    92 A    93 A    91 B    94 A    92 B    93 B    95 A                  
  2.301   2.317   2.389   2.419   2.436   2.439   2.510   2.516
 96 A    94 B    95 B    97 A    98 A    96 B    97 B    99 A                  
  2.564   2.599   2.626   2.635   2.656   2.670   2.690   2.699
 98 B   100 A    99 B   101 A   102 A   100 B   101 B   103 A                  
  2.722   2.729   2.748   2.836   2.850   2.877   2.909   2.964
104 A   105 A   102 B   103 B   104 B   106 A   107 A   105 B                  
  2.996   3.113   3.153   3.287   3.377   3.418   3.420   3.548
108 A   106 B   107 B   109 A   108 B   110 A   109 B   111 A                  
  3.588   3.855   3.902   4.100   4.182   4.398   4.454   4.472
110 B   112 A   111 B   113 A   112 B   114 A   115 A   113 B                  
  4.491   4.568   4.699   4.800   4.896
114 B   116 A   115 B   117 A   116 B                                          
 
 Beta MOs, Unrestricted
 -- Occupied --                  
-88.749 -88.749 -10.063 -10.062 -10.052 -10.052 -10.049 -10.049
  1 B     1 A     2 A     2 B     3 B     3 A     4 B     4 A                  
-10.031 -10.031  -7.808  -7.808  -5.773  -5.773  -5.770  -5.770
  5 B     5 A     6 B     6 A     7 B     7 A     8 B     8 A                  
 -5.764  -5.764  -0.720  -0.698  -0.601  -0.578  -0.567  -0.531
  9 A     9 B    10 A    10 B    11 A    12 A    11 B    12 B                  
 -0.440  -0.413  -0.390  -0.366  -0.362  -0.313  -0.260  -0.253
 13 A    14 A    13 B    14 B    15 A    15 B    16 A    17 A                  
 -0.243  -0.237  -0.231  -0.204  -0.199  -0.195  -0.172  -0.112
 16 B    18 A    17 B    18 B    19 A    20 A    19 B    20 B                  
 -0.100  -0.092  -0.031
 21 B    21 A    22 A                                                          
 -- Virtual --                   
  0.093   0.096   0.101   0.108   0.114   0.124   0.146   0.148
 23 A    22 B    23 B    24 A    24 B    25 A    26 A    25 B                  
  0.153   0.160   0.165   0.166   0.175   0.178   0.178   0.189
 27 A    28 A    26 B    29 A    27 B    30 A    28 B    29 B                  
  0.199   0.206   0.212   0.214   0.217   0.220   0.229   0.229
 30 B    31 A    32 A    31 B    33 A    32 B    33 B    34 A                  
  0.233   0.235   0.239   0.241   0.250   0.257   0.265   0.267
 35 A    34 B    36 A    37 A    35 B    38 A    39 A    36 B                  
  0.269   0.279   0.281   0.283   0.287   0.295   0.306   0.312
 40 A    41 A    37 B    38 B    39 B    40 B    41 B    42 A                  
  0.315   0.319   0.319   0.325   0.329   0.339   0.348   0.361
 43 A    44 A    42 B    45 A    46 A    43 B    44 B    47 A                  
  0.378   0.393   0.394   0.399   0.413   0.427   0.437   0.443
 45 B    48 A    46 B    49 A    47 B    48 B    50 A    51 A                  
  0.452   0.455   0.476   0.481   0.496   0.520   0.530   0.578
 49 B    52 A    50 B    53 A    51 B    54 A    52 B    53 B                  
  0.588   0.612   0.642   0.690   0.704   0.708   0.713   0.732
 55 A    56 A    54 B    57 A    55 B    56 B    58 A    57 B                  
  0.744   0.766   0.805   0.816   0.816   0.831   0.833   0.836
 59 A    60 A    58 B    59 B    61 A    62 A    60 B    63 A                  
  0.858   0.873   0.874   0.878   0.885   0.914   0.921   0.939
 64 A    65 A    61 B    62 B    63 B    66 A    64 B    67 A                  
  0.956   0.983   0.994   1.013   1.034   1.072   1.079   1.098
 65 B    66 B    68 A    67 B    69 A    68 B    70 A    71 A                  
  1.108   1.118   1.121   1.123   1.129   1.151   1.156   1.160
 69 B    72 A    70 B    71 B    73 A    72 B    73 B    74 A                  
  1.180   1.183   1.230   1.237   1.263   1.266   1.285   1.318
 75 A    76 A    74 B    77 A    78 A    75 B    76 B    79 A                  
  1.340   1.350   1.360   1.398   1.426   1.496   1.509   1.511
 80 A    77 B    78 B    81 A    79 B    80 B    82 A    81 B                  
  1.517   1.532   1.533   1.616   1.658   1.693   1.728   1.760
 83 A    84 A    82 B    83 B    85 A    84 B    86 A    85 B                  
  1.799   1.854   1.868   1.973   1.986   2.033   2.057   2.074
 86 B    87 A    87 B    88 A    89 A    90 A    88 B    89 B                  
  2.089   2.146   2.148   2.165   2.167   2.215   2.240   2.270
 91 A    90 B    92 A    93 A    91 B    94 A    92 B    93 B                  
  2.287   2.311   2.324   2.396   2.423   2.439   2.442   2.512
 95 A    96 A    94 B    95 B    97 A    98 A    96 B    97 B                  
  2.518   2.569   2.602   2.626   2.636   2.660   2.675   2.691
 99 A    98 B   100 A    99 B   101 A   102 A   100 B   101 B                  
  2.704   2.728   2.732   2.752   2.839   2.850   2.881   2.910
103 A   104 A   105 A   102 B   103 B   104 B   106 A   107 A                  
  2.967   2.998   3.115   3.155   3.288   3.378   3.418   3.420
105 B   108 A   106 B   107 B   109 A   108 B   110 A   109 B                  
  3.549   3.589   3.856   3.903   4.101   4.184   4.403   4.456
111 A   110 B   112 A   111 B   113 A   112 B   114 A   115 A                  
  4.477   4.492   4.573   4.704   4.802   4.899
113 B   114 B   116 A   115 B   117 A   116 B                                  
 --------------------------------------------------------------
 
          Ground-State Mulliken Net Atomic Charges

     Atom                 Charge (a.u.)    Spin (a.u.)
  --------------------------------------------------------
      1 S                    -0.344092       0.101688
      2 C                    -0.074163       0.247549
      3 C                    -0.397897      -0.077173
      4 C                     0.210281       0.248748
      5 C                    -0.193550       0.000014
      6 H                     0.074961      -0.009918
      7 C                    -0.193550       0.000014
      8 S                    -0.344092       0.101688
      9 C                     0.210281       0.248745
     10 C                    -0.074163       0.247548
     11 C                    -0.397897      -0.077171
     12 H                     0.071526       0.004127
     13 H                     0.152933      -0.015034
     14 H                     0.071526       0.004127
     15 H                     0.152933      -0.015034
     16 H                     0.074961      -0.009918
  --------------------------------------------------------
  Sum of atomic charges =    -1.000000
  Sum of spin   charges =     1.000000

 -----------------------------------------------------------------
                    Cartesian Multipole Moments
 -----------------------------------------------------------------
    Charge (ESU x 10^10)
                -4.8032
    Dipole Moment (Debye)
         X      -0.0000      Y      -0.0000      Z      -0.3728
       Tot       0.3728
    Quadrupole Moments (Debye-Ang)
        XX     -99.0536     XY       0.0829     YY     -87.2218
        XZ       0.0000     YZ       0.0000     ZZ     -83.3126
    Octopole Moments (Debye-Ang^2)
       XXX       0.0000    XXY      -0.0000    XYY      -0.0000
       YYY      -0.0000    XXZ       9.3887    XYZ      -1.6179
       YYZ       4.7712    XZZ      -0.0000    YZZ      -0.0000
       ZZZ       0.7571
    Hexadecapole Moments (Debye-Ang^3)
      XXXX   -2464.7498   XXXY      -0.6184   XXYY    -486.7079
      XYYY      -2.4593   YYYY    -146.0656   XXXZ       0.0000
      XXYZ       0.0000   XYYZ       0.0000   YYYZ      -0.0000
      XXZZ    -500.6025   XYZZ       1.2091   YYZZ    -156.7192
      XZZZ       0.0000   YZZZ      -0.0000   ZZZZ    -675.4514
 -----------------------------------------------------------------
 Calculating analytic gradient of the SCF energy
 Gradient of SCF Energy
            1           2           3           4           5           6
    1  -0.0021338  -0.0000605   0.0007353   0.0003465  -0.0015654   0.0000165
    2  -0.0006414  -0.0001080   0.0010336   0.0015019  -0.0005964  -0.0006007
    3   0.0014235  -0.0014181   0.0008889   0.0011674  -0.0022315  -0.0000144
            7           8           9          10          11          12
    1   0.0015654   0.0021338  -0.0003465   0.0000605  -0.0007353   0.0000034
    2   0.0005964   0.0006414  -0.0015019   0.0001080  -0.0010336   0.0000579
    3  -0.0022315   0.0014235   0.0011674  -0.0014181   0.0008889   0.0000997
           13          14          15          16
    1   0.0000313  -0.0000034  -0.0000313  -0.0000165
    2  -0.0005705  -0.0000579   0.0005705   0.0006007
    3   0.0000847   0.0000997   0.0000847  -0.0000144
 Max gradient component =       2.232E-03
 RMS gradient           =       9.927E-04
 Gradient time:  CPU 1.83 s  wall 1.77 s
 Geometry Optimization Parameters
   NAtoms,    NIC,     NZ,  NCons,   NDum,   NFix, NCnnct, MaxDiis
       16     111       0       1       0       0       0       0


** CONSTRAINED OPTIMIZATION IN DELOCALIZED INTERNAL COORDINATES **
   Searching for a Minimum

   Optimization Cycle:   1

                       Coordinates (Angstroms)
     ATOM                X               Y               Z
      1  S         1.6252354572   -0.1154549611    1.1646360488
      2  C         3.1726130161   -0.0226599880    0.3146672326
      3  C         2.9728524099    0.0939173149   -1.0483029596
      4  C         1.6179227834    0.1125987299   -1.4433592217
      5  C         0.7041435372    0.0080813773   -0.3686636269
      6  H         1.2904876255    0.1999373649   -2.4738751503
      7  C        -0.7041435372   -0.0080813773   -0.3686636269
      8  S        -1.6252354572    0.1154549611    1.1646360488
      9  C        -1.6179227834   -0.1125987299   -1.4433592217
     10  C        -3.1726130161    0.0226599880    0.3146672326
     11  C        -2.9728524099   -0.0939173149   -1.0483029596
     12  H        -3.7968613387   -0.1651066790   -1.7544933080
     13  H         4.1005120309   -0.0618715676    0.8681430032
     14  H         3.7968613387    0.1651066790   -1.7544933080
     15  H        -4.1005120309    0.0618715676    0.8681430032
     16  H        -1.2904876255   -0.1999373649   -2.4738751503
   Point Group: c2    Number of degrees of freedom:    22


   Energy is  -1104.844050907

              Constraints and their Current Values
                                        Value     Constraint
   Dihedral:        4   5   7   9       10.000       10.000

 Attempting to Generate Delocalized Internal Coordinates

 21 Hessian modes will be used to form the next step
  Hessian Eigenvalues:
     0.045000    0.045000    0.045000    0.045000    0.045000    0.045000
     0.160000    0.160000    0.160000    0.221184    0.237470    0.250000
     0.264210    0.283931    0.350974    0.354198    0.358566    0.414224
     0.425056    0.442595    0.471396

 Minimum Search - Taking Simple RFO Step
 Searching for Lamda that Minimizes Along All modes
 Value Taken    Lamda =  -0.00061137
 Step Taken.  Stepsize is  0.067436

                             Maximum     Tolerance    Cnvgd?
         Gradient           0.009734      0.000300      NO
         Displacement       0.038792      0.001200      NO
         Energy change     *********      0.000001      NO


 New Cartesian Coordinates Obtained by Inverse Iteration

 Displacement from previous Coordinates is:  0.279119
 ----------------------------------------------------------------
             Standard Nuclear Orientation (Angstroms)
    I     Atom           X                Y                Z
 ----------------------------------------------------------------
    1      S       1.6606751036    -0.1075550003     1.1802487038
    2      C       3.1901396123    -0.0176931369     0.3000752751
    3      C       2.9612295509     0.0819939200    -1.0604452044
    4      C       1.5988836324     0.1014072513    -1.4268849063
    5      C       0.7057576957     0.0025451326    -0.3337086387
    6      H       1.2507348348     0.1888567616    -2.4506418631
    7      C      -0.7057576957    -0.0025451326    -0.3337086387
    8      S      -1.6606751036     0.1075550003     1.1802487038
    9      C      -1.5988836324    -0.1014072513    -1.4268849063
   10      C      -3.1901396123     0.0176931369     0.3000752751
   11      C      -2.9612295509    -0.0819939200    -1.0604452044
   12      H      -3.7698339220    -0.1509711560    -1.7845981290
   13      H       4.1293300546    -0.0435849366     0.8347067806
   14      H       3.7698339220     0.1509711560    -1.7845981290
   15      H      -4.1293300546     0.0435849366     0.8347067806
   16      H      -1.2507348348    -0.1888567616    -2.4506418631
 ----------------------------------------------------------------
 Molecular Point Group                 C2    NOp =  2
 Largest Abelian Subgroup              C2    NOp =  2
 Nuclear Repulsion Energy =   626.4649326747 hartrees
 There are       44 alpha and       43 beta electrons
 Applying Cartesian multipole field
    Component          Value
    ---------          -----
     (2,0,0)        1.00000E-11
     (0,2,0)        2.00000E-11
     (0,0,2)       -3.00000E-11
 Nucleus-field energy     =     0.0000000038 hartrees
 Requested basis set is 6-31++G(d,p)
 There are 76 shells and 234 basis functions
 A cutoff of  1.0D-11 yielded   2487 shell pairs
 There are     24583 function pairs
 Smallest overlap matrix eigenvalue = 6.68E-07

 Q-Chem warning in module /project/projectdirs/jcesr/qchem/qc44/cnl_qc441/compile/cori/qc_src/stvman/mkSTV.C, line 257:

 Overlap eigenvalue is smaller than square root of threshold

 Linear dependence detected in AO basis
 Number of orthogonalized atomic orbitals = 233
 Maximum deviation from orthogonality = 6.918E-11
 Guess MOs from SCF MO coefficient file
 Reading MOs from coefficient file
 Reading MOs from coefficient file
 An unrestricted hybrid HF-DFT SCF calculation will be
 performed using Pulay DIIS extrapolation
 Exchange:     0.2000 Hartree-Fock + 0.0800 Slater + 0.7200 B88
 Correlation:  0.1900 VWN1RPA + 0.8100 LYP
 Using SG-1 standard quadrature grid
 SCF converges when DIIS error is below 1.0E-08
 Geometry optimization detected.  Setting ReadMinima to 0
 Setting SaveMinima to 0
 ---------------------------------------
  Cycle       Energy         DIIS Error
 ---------------------------------------
    1   -1104.8167636473      1.19E-03
    2   -1104.8436018259      3.08E-04
    3   -1104.8404510336      6.94E-04
    4   -1104.8444185701      2.20E-05
    5   -1104.8444213178      1.19E-05
    6   -1104.8444222060      4.38E-06
    7   -1104.8444223652      1.10E-06
    8   -1104.8444223781      2.89E-07
    9   -1104.8444223810      1.03E-07
   10   -1104.8444223813      5.29E-08
   11   -1104.8444223810      1.83E-08
   12   -1104.8444223798      5.03E-09 Convergence criterion met
 ---------------------------------------
 <S^2> = 0.7627
 SCF time:  CPU 7.77 s  wall 7.05 s
 SCF   energy in the final basis set = -1104.8444223798
 Total energy in the final basis set = -1104.8444223798
 
 --------------------------------------------------------------
             Orbital Energies (a.u.) and Symmetries
 --------------------------------------------------------------
 
 Alpha MOs, Unrestricted
 -- Occupied --                  
-88.751 -88.751 -10.065 -10.065 -10.056 -10.056 -10.049 -10.049
  1 B     1 A     2 A     2 B     3 B     3 A     4 B     4 A                  
-10.033 -10.033  -7.810  -7.810  -5.774  -5.774  -5.770  -5.770
  5 B     5 A     6 B     6 A     7 B     7 A     8 B     8 A                  
 -5.767  -5.767  -0.724  -0.702  -0.606  -0.582  -0.571  -0.536
  9 A     9 B    10 A    10 B    11 A    12 A    11 B    12 B                  
 -0.447  -0.415  -0.393  -0.368  -0.364  -0.315  -0.262  -0.254
 13 A    14 A    13 B    14 B    15 A    15 B    16 A    17 A                  
 -0.244  -0.241  -0.240  -0.209  -0.207  -0.197  -0.176  -0.127
 16 B    17 B    18 A    19 A    18 B    20 A    19 B    20 B                  
 -0.110  -0.101  -0.050   0.047
 21 B    21 A    22 A    22 B                                                  
 -- Virtual --                   
  0.093   0.097   0.109   0.115   0.125   0.145   0.148   0.149
 23 A    23 B    24 A    24 B    25 A    26 A    25 B    27 A                  
  0.150   0.164   0.165   0.173   0.175   0.178   0.188   0.198
 28 A    26 B    29 A    27 B    28 B    30 A    29 B    30 B                  
  0.206   0.208   0.211   0.216   0.217   0.227   0.228   0.233
 31 A    32 A    31 B    32 B    33 A    33 B    34 A    35 A                  
  0.234   0.235   0.240   0.249   0.256   0.262   0.266   0.267
 34 B    36 A    37 A    35 B    38 A    39 A    36 B    40 A                  
  0.275   0.279   0.281   0.286   0.294   0.305   0.308   0.315
 41 A    37 B    38 B    39 B    40 B    41 B    42 A    43 A                  
  0.316   0.318   0.325   0.327   0.338   0.349   0.360   0.380
 42 B    44 A    45 A    46 A    43 B    44 B    47 A    45 B                  
  0.392   0.393   0.401   0.412   0.427   0.435   0.441   0.450
 46 B    48 A    49 A    47 B    48 B    50 A    51 A    49 B                  
  0.453   0.476   0.480   0.496   0.519   0.528   0.576   0.584
 52 A    50 B    53 A    51 B    54 A    52 B    53 B    55 A                  
  0.609   0.641   0.685   0.700   0.706   0.710   0.727   0.745
 56 A    54 B    57 A    55 B    56 B    58 A    57 B    59 A                  
  0.765   0.798   0.805   0.811   0.826   0.830   0.830   0.858
 60 A    58 B    61 A    59 B    62 A    60 B    63 A    64 A                  
  0.866   0.870   0.873   0.884   0.908   0.919   0.937   0.952
 61 B    65 A    62 B    63 B    66 A    64 B    67 A    65 B                  
  0.974   0.987   1.003   1.031   1.070   1.078   1.097   1.105
 66 B    68 A    67 B    69 A    68 B    70 A    71 A    69 B                  
  1.115   1.121   1.124   1.128   1.155   1.157   1.161   1.175
 72 A    70 B    71 B    73 A    74 A    72 B    73 B    75 A                  
  1.179   1.229   1.233   1.258   1.262   1.283   1.312   1.338
 76 A    74 B    77 A    78 A    75 B    76 B    79 A    80 A                  
  1.348   1.358   1.393   1.420   1.492   1.505   1.510   1.511
 77 B    78 B    81 A    79 B    80 B    82 A    81 B    83 A                  
  1.527   1.530   1.615   1.654   1.689   1.718   1.753   1.793
 82 B    84 A    83 B    85 A    84 B    86 A    85 B    86 B                  
  1.844   1.857   1.966   1.988   2.030   2.056   2.072   2.087
 87 A    87 B    88 A    89 A    90 A    88 B    89 B    91 A                  
  2.143   2.146   2.159   2.159   2.212   2.235   2.264   2.281
 90 B    92 A    93 A    91 B    94 A    92 B    93 B    95 A                  
  2.300   2.315   2.386   2.417   2.438   2.441   2.510   2.516
 96 A    94 B    95 B    97 A    98 A    96 B    97 B    99 A                  
  2.565   2.599   2.624   2.634   2.657   2.670   2.689   2.696
 98 B   100 A    99 B   101 A   102 A   100 B   101 B   103 A                  
  2.719   2.729   2.749   2.836   2.846   2.875   2.908   2.968
104 A   105 A   102 B   103 B   104 B   106 A   107 A   105 B                  
  2.999   3.108   3.148   3.288   3.375   3.418   3.420   3.548
108 A   106 B   107 B   109 A   108 B   110 A   109 B   111 A                  
  3.587   3.854   3.902   4.100   4.180   4.400   4.453   4.469
110 B   112 A   111 B   113 A   112 B   114 A   115 A   113 B                  
  4.491   4.566   4.695   4.798   4.892
114 B   116 A   115 B   117 A   116 B                                          
 
 Beta MOs, Unrestricted
 -- Occupied --                  
-88.750 -88.750 -10.063 -10.063 -10.053 -10.053 -10.050 -10.050
  1 B     1 A     2 A     2 B     3 B     3 A     4 B     4 A                  
-10.031 -10.031  -7.809  -7.809  -5.774  -5.774  -5.770  -5.770
  5 B     5 A     6 B     6 A     7 B     7 A     8 B     8 A                  
 -5.765  -5.765  -0.720  -0.699  -0.600  -0.578  -0.568  -0.531
  9 A     9 B    10 A    10 B    11 A    12 A    11 B    12 B                  
 -0.440  -0.413  -0.390  -0.365  -0.362  -0.313  -0.260  -0.253
 13 A    14 A    13 B    14 B    15 A    15 B    16 A    17 A                  
 -0.242  -0.237  -0.230  -0.206  -0.200  -0.194  -0.173  -0.112
 16 B    18 A    17 B    18 B    19 A    20 A    19 B    20 B                  
 -0.100  -0.093  -0.031
 21 B    21 A    22 A                                                          
 -- Virtual --                   
  0.093   0.096   0.101   0.108   0.114   0.124   0.147   0.148
 23 A    22 B    23 B    24 A    24 B    25 A    26 A    25 B                  
  0.151   0.160   0.165   0.165   0.175   0.178   0.178   0.188
 27 A    28 A    26 B    29 A    27 B    30 A    28 B    29 B                  
  0.199   0.205   0.211   0.213   0.217   0.219   0.227   0.229
 30 B    31 A    32 A    31 B    33 A    32 B    33 B    34 A                  
  0.234   0.234   0.239   0.242   0.250   0.257   0.265   0.266
 35 A    34 B    36 A    37 A    35 B    38 A    39 A    36 B                  
  0.269   0.278   0.281   0.282   0.287   0.295   0.306   0.311
 40 A    41 A    37 B    38 B    39 B    40 B    41 B    42 A                  
  0.315   0.318   0.319   0.326   0.328   0.339   0.349   0.360
 43 A    42 B    44 A    45 A    46 A    43 B    44 B    47 A                  
  0.380   0.392   0.393   0.401   0.414   0.427   0.438   0.443
 45 B    46 B    48 A    49 A    47 B    48 B    50 A    51 A                  
  0.452   0.454   0.477   0.480   0.496   0.519   0.531   0.578
 49 B    52 A    50 B    53 A    51 B    54 A    52 B    53 B                  
  0.586   0.610   0.643   0.688   0.702   0.708   0.712   0.730
 55 A    56 A    54 B    57 A    55 B    56 B    58 A    57 B                  
  0.746   0.767   0.806   0.816   0.816   0.829   0.833   0.835
 59 A    60 A    58 B    61 A    59 B    62 A    63 A    60 B                  
  0.860   0.873   0.873   0.877   0.884   0.915   0.920   0.939
 64 A    65 A    61 B    62 B    63 B    66 A    64 B    67 A                  
  0.954   0.981   0.995   1.010   1.033   1.071   1.080   1.097
 65 B    66 B    68 A    67 B    69 A    68 B    70 A    71 A                  
  1.108   1.120   1.121   1.126   1.130   1.157   1.158   1.162
 69 B    72 A    70 B    71 B    73 A    74 A    72 B    73 B                  
  1.178   1.181   1.231   1.235   1.260   1.265   1.287   1.317
 75 A    76 A    74 B    77 A    78 A    75 B    76 B    79 A                  
  1.340   1.349   1.360   1.396   1.427   1.495   1.508   1.513
 80 A    77 B    78 B    81 A    79 B    80 B    82 A    81 B                  
  1.516   1.532   1.533   1.616   1.655   1.692   1.724   1.760
 83 A    84 A    82 B    83 B    85 A    84 B    86 A    85 B                  
  1.796   1.854   1.868   1.971   1.989   2.033   2.057   2.074
 86 B    87 A    87 B    88 A    89 A    90 A    88 B    89 B                  
  2.089   2.147   2.150   2.161   2.163   2.215   2.237   2.271
 91 A    90 B    92 A    93 A    91 B    94 A    92 B    93 B                  
  2.289   2.310   2.322   2.394   2.422   2.441   2.444   2.512
 95 A    96 A    94 B    95 B    97 A    98 A    96 B    97 B                  
  2.518   2.569   2.602   2.625   2.636   2.661   2.675   2.690
 99 A    98 B   100 A    99 B   101 A   102 A   100 B   101 B                  
  2.700   2.725   2.732   2.753   2.839   2.847   2.879   2.909
103 A   104 A   105 A   102 B   103 B   104 B   106 A   107 A                  
  2.971   3.000   3.111   3.150   3.289   3.376   3.418   3.420
105 B   108 A   106 B   107 B   109 A   108 B   110 A   109 B                  
  3.549   3.588   3.855   3.903   4.101   4.182   4.404   4.455
111 A   110 B   112 A   111 B   113 A   112 B   114 A   115 A                  
  4.474   4.493   4.572   4.701   4.801   4.895
113 B   114 B   116 A   115 B   117 A   116 B                                  
 --------------------------------------------------------------
 
          Ground-State Mulliken Net Atomic Charges

     Atom                 Charge (a.u.)    Spin (a.u.)
  --------------------------------------------------------
      1 S                    -0.322611       0.102961
      2 C                    -0.089492       0.245636
      3 C                    -0.392822      -0.073546
      4 C                     0.183171       0.243661
      5 C                    -0.176465       0.002218
      6 H                     0.073622      -0.009987
      7 C                    -0.176465       0.002218
      8 S                    -0.322611       0.102961
      9 C                     0.183171       0.243661
     10 C                    -0.089492       0.245636
     11 C                    -0.392822      -0.073546
     12 H                     0.072081       0.004169
     13 H                     0.152516      -0.015112
     14 H                     0.072081       0.004169
     15 H                     0.152516      -0.015112
     16 H                     0.073622      -0.009987
  --------------------------------------------------------
  Sum of atomic charges =    -1.000000
  Sum of spin   charges =     1.000000

 -----------------------------------------------------------------
                    Cartesian Multipole Moments
 -----------------------------------------------------------------
    Charge (ESU x 10^10)
                -4.8032
    Dipole Moment (Debye)
         X       0.0000      Y       0.0000      Z      -0.4365
       Tot       0.4365
    Quadrupole Moments (Debye-Ang)
        XX     -99.2020     XY       0.2295     YY     -87.2379
        XZ      -0.0000     YZ      -0.0000     ZZ     -83.4052
    Octopole Moments (Debye-Ang^2)
       XXX       0.0000    XXY      -0.0000    XYY       0.0000
       YYY       0.0000    XXZ       8.3319    XYZ      -1.4220
       YYZ       4.0893    XZZ       0.0000    YZZ       0.0000
       ZZZ      -1.7858
    Hexadecapole Moments (Debye-Ang^3)
      XXXX   -2481.1822   XXXY       2.4326   XXYY    -489.9927
      XYYY      -1.1706   YYYY    -145.2545   XXXZ      -0.0000
      XXYZ      -0.0000   XYYZ       0.0000   YYYZ      -0.0000
      XXZZ    -504.2118   XYZZ       1.8423   YYZZ    -156.9666
      XZZZ       0.0000   YZZZ      -0.0000   ZZZZ    -678.4204
 -----------------------------------------------------------------
 Calculating analytic gradient of the SCF energy
 Gradient of SCF Energy
            1           2           3           4           5           6
    1   0.0002667   0.0002036   0.0003758  -0.0000645   0.0000131  -0.0001050
    2  -0.0005890   0.0002859  -0.0000360   0.0018616  -0.0017517  -0.0003400
    3   0.0008106  -0.0002669   0.0003995   0.0010206  -0.0018269  -0.0001231
            7           8           9          10          11          12
    1  -0.0000131  -0.0002667   0.0000645  -0.0002036  -0.0003758   0.0000045
    2   0.0017517   0.0005890  -0.0018616  -0.0002859   0.0000360  -0.0000146
    3  -0.0018269   0.0008106   0.0010206  -0.0002669   0.0003995   0.0000143
           13          14          15          16
    1   0.0000785  -0.0000045  -0.0000785   0.0001050
    2  -0.0002918   0.0000146   0.0002918   0.0003400
    3  -0.0000281   0.0000143  -0.0000281  -0.0001231
 Max gradient component =       1.862E-03
 RMS gradient           =       7.281E-04
 Gradient time:  CPU 1.76 s  wall 1.76 s
 Geometry Optimization Parameters
   NAtoms,    NIC,     NZ,  NCons,   NDum,   NFix, NCnnct, MaxDiis
       16     111       0       1       0       0       0       0

 Cartesian Hessian Update
 Hessian Updated using BFGS Update


** CONSTRAINED OPTIMIZATION IN DELOCALIZED INTERNAL COORDINATES **
   Searching for a Minimum

   Optimization Cycle:   2

                       Coordinates (Angstroms)
     ATOM                X               Y               Z
      1  S         1.6606751036   -0.1075550003    1.1802487038
      2  C         3.1901396123   -0.0176931369    0.3000752751
      3  C         2.9612295509    0.0819939200   -1.0604452044
      4  C         1.5988836324    0.1014072513   -1.4268849063
      5  C         0.7057576957    0.0025451326   -0.3337086387
      6  H         1.2507348348    0.1888567616   -2.4506418631
      7  C        -0.7057576957   -0.0025451326   -0.3337086387
      8  S        -1.6606751036    0.1075550003    1.1802487038
      9  C        -1.5988836324   -0.1014072513   -1.4268849063
     10  C        -3.1901396123    0.0176931369    0.3000752751
     11  C        -2.9612295509   -0.0819939200   -1.0604452044
     12  H        -3.7698339220   -0.1509711560   -1.7845981290
     13  H         4.1293300546   -0.0435849366    0.8347067806
     14  H         3.7698339220    0.1509711560   -1.7845981290
     15  H        -4.1293300546    0.0435849366    0.8347067806
     16  H        -1.2507348348   -0.1888567616   -2.4506418631
   Point Group: c2    Number of degrees of freedom:    22


   Energy is  -1104.844422380

              Constraints and their Current Values
                                        Value     Constraint
   Dihedral:        4   5   7   9       10.000       10.000
 Hessian Updated using BFGS Update

 17 Hessian modes will be used to form the next step
  Hessian Eigenvalues:
     0.036242    0.045784    0.159902    0.160000    0.160083    0.206370
     0.221294    0.243912    0.282809    0.285908    0.350973    0.354384
     0.358558    0.414203    0.424732    0.459064    0.470435

 Minimum Search - Taking Simple RFO Step
 Searching for Lamda that Minimizes Along All modes
 Value Taken    Lamda =  -0.00010420
 Step Taken.  Stepsize is  0.045361

                             Maximum     Tolerance    Cnvgd?
         Gradient           0.001830      0.000300      NO
         Displacement       0.030066      0.001200      NO
         Energy change     -0.000371      0.000001      NO


 New Cartesian Coordinates Obtained by Inverse Iteration

 Displacement from previous Coordinates is:  0.108619
 ----------------------------------------------------------------
             Standard Nuclear Orientation (Angstroms)
    I     Atom           X                Y                Z
 ----------------------------------------------------------------
    1      S       1.6681895242    -0.0994805892     1.1857853648
    2      C       3.1913556597    -0.0148709946     0.2951429244
    3      C       2.9542323572     0.0748251713    -1.0651796913
    4      C       1.5902212045     0.0918268504    -1.4223644980
    5      C       0.7053300176    -0.0020082173    -0.3210332143
    6      H       1.2352089474     0.1795493004    -2.4434930870
    7      C      -0.7053300176     0.0020082173    -0.3210332143
    8      S      -1.6681895242     0.0994805892     1.1857853648
    9      C      -1.5902212045    -0.0918268504    -1.4223644980
   10      C      -3.1913556597     0.0148709946     0.2951429244
   11      C      -2.9542323572    -0.0748251713    -1.0651796913
   12      H      -3.7581128706    -0.1426285964    -1.7947343046
   13      H       4.1335299542    -0.0306820141     0.8246285240
   14      H       3.7581128706     0.1426285964    -1.7947343046
   15      H      -4.1335299542     0.0306820141     0.8246285240
   16      H      -1.2352089474    -0.1795493004    -2.4434930870
 ----------------------------------------------------------------
 Molecular Point Group                 C2    NOp =  2
 Largest Abelian Subgroup              C2    NOp =  2
 Nuclear Repulsion Energy =   626.5126825254 hartrees
 There are       44 alpha and       43 beta electrons
 Applying Cartesian multipole field
    Component          Value
    ---------          -----
     (2,0,0)        1.00000E-11
     (0,2,0)        2.00000E-11
     (0,0,2)       -3.00000E-11
 Nucleus-field energy     =     0.0000000037 hartrees
 Requested basis set is 6-31++G(d,p)
 There are 76 shells and 234 basis functions
 A cutoff of  1.0D-11 yielded   2489 shell pairs
 There are     24607 function pairs
 Smallest overlap matrix eigenvalue = 7.05E-07

 Q-Chem warning in module /project/projectdirs/jcesr/qchem/qc44/cnl_qc441/compile/cori/qc_src/stvman/mkSTV.C, line 257:

 Overlap eigenvalue is smaller than square root of threshold

 Linear dependence detected in AO basis
 Number of orthogonalized atomic orbitals = 233
 Maximum deviation from orthogonality = 7.965E-11
 Guess MOs from SCF MO coefficient file
 Reading MOs from coefficient file
 Reading MOs from coefficient file
 An unrestricted hybrid HF-DFT SCF calculation will be
 performed using Pulay DIIS extrapolation
 Exchange:     0.2000 Hartree-Fock + 0.0800 Slater + 0.7200 B88
 Correlation:  0.1900 VWN1RPA + 0.8100 LYP
 Using SG-1 standard quadrature grid
 SCF converges when DIIS error is below 1.0E-08
 Geometry optimization detected.  Setting ReadMinima to 0
 Setting SaveMinima to 0
 ---------------------------------------
  Cycle       Energy         DIIS Error
 ---------------------------------------
    1   -1104.8375721772      5.67E-04
    2   -1104.8444312152      8.03E-05
    3   -1104.8442068093      1.85E-04
    4   -1104.8444848760      9.54E-06
    5   -1104.8444854950      4.42E-06
    6   -1104.8444856301      1.87E-06
    7   -1104.8444856605      4.94E-07
    8   -1104.8444856624      1.14E-07
    9   -1104.8444856623      4.37E-08
   10   -1104.8444856619      1.89E-08
   11   -1104.8444856621      6.54E-09 Convergence criterion met
 ---------------------------------------
 <S^2> = 0.7626
 SCF time:  CPU 7.19 s  wall 6.42 s
 SCF   energy in the final basis set = -1104.8444856621
 Total energy in the final basis set = -1104.8444856621
 
 --------------------------------------------------------------
             Orbital Energies (a.u.) and Symmetries
 --------------------------------------------------------------
 
 Alpha MOs, Unrestricted
 -- Occupied --                  
-88.751 -88.751 -10.065 -10.064 -10.056 -10.056 -10.049 -10.049
  1 B     1 A     2 A     2 B     3 B     3 A     4 B     4 A                  
-10.033 -10.033  -7.810  -7.810  -5.774  -5.774  -5.771  -5.771
  5 B     5 A     6 B     6 A     7 B     7 A     8 B     8 A                  
 -5.767  -5.767  -0.724  -0.702  -0.606  -0.582  -0.571  -0.535
  9 A     9 B    10 A    10 B    11 A    12 A    11 B    12 B                  
 -0.447  -0.415  -0.393  -0.368  -0.364  -0.315  -0.262  -0.254
 13 A    14 A    13 B    14 B    15 A    15 B    16 A    17 A                  
 -0.244  -0.241  -0.239  -0.209  -0.208  -0.197  -0.176  -0.127
 16 B    17 B    18 A    19 A    18 B    20 A    19 B    20 B                  
 -0.110  -0.101  -0.050   0.047
 21 B    21 A    22 A    22 B                                                  
 -- Virtual --                   
  0.093   0.097   0.109   0.115   0.125   0.146   0.149   0.149
 23 A    23 B    24 A    24 B    25 A    26 A    25 B    27 A                  
  0.150   0.164   0.165   0.173   0.176   0.178   0.188   0.198
 28 A    26 B    29 A    27 B    28 B    30 A    29 B    30 B                  
  0.206   0.208   0.211   0.216   0.217   0.227   0.228   0.234
 31 A    32 A    31 B    32 B    33 A    33 B    34 A    34 B                  
  0.234   0.236   0.240   0.249   0.256   0.262   0.266   0.267
 35 A    36 A    37 A    35 B    38 A    39 A    36 B    40 A                  
  0.275   0.278   0.280   0.286   0.294   0.306   0.308   0.315
 41 A    37 B    38 B    39 B    40 B    41 B    42 A    43 A                  
  0.316   0.319   0.325   0.326   0.338   0.350   0.359   0.380
 42 B    44 A    45 A    46 A    43 B    44 B    47 A    45 B                  
  0.392   0.393   0.401   0.414   0.428   0.435   0.441   0.451
 46 B    48 A    49 A    47 B    48 B    50 A    51 A    49 B                  
  0.453   0.477   0.479   0.496   0.518   0.529   0.577   0.584
 52 A    50 B    53 A    51 B    54 A    52 B    53 B    55 A                  
  0.609   0.641   0.684   0.700   0.707   0.710   0.728   0.745
 56 A    54 B    57 A    55 B    56 B    58 A    57 B    59 A                  
  0.766   0.798   0.805   0.812   0.825   0.828   0.832   0.860
 60 A    58 B    61 A    59 B    62 A    63 A    60 B    64 A                  
  0.865   0.870   0.873   0.884   0.909   0.919   0.937   0.952
 61 B    65 A    62 B    63 B    66 A    64 B    67 A    65 B                  
  0.973   0.987   1.002   1.031   1.071   1.078   1.096   1.105
 66 B    68 A    67 B    69 A    68 B    70 A    71 A    69 B                  
  1.115   1.120   1.126   1.128   1.155   1.160   1.165   1.174
 72 A    70 B    71 B    73 A    74 A    72 B    73 B    75 A                  
  1.179   1.231   1.233   1.257   1.263   1.284   1.312   1.339
 76 A    74 B    77 A    78 A    75 B    76 B    79 A    80 A                  
  1.348   1.359   1.393   1.420   1.492   1.504   1.511   1.511
 77 B    78 B    81 A    79 B    80 B    82 A    81 B    83 A                  
  1.527   1.530   1.616   1.653   1.689   1.718   1.755   1.792
 82 B    84 A    83 B    85 A    84 B    86 A    85 B    86 B                  
  1.844   1.857   1.966   1.989   2.031   2.056   2.073   2.087
 87 A    87 B    88 A    89 A    90 A    88 B    89 B    91 A                  
  2.144   2.148   2.158   2.159   2.214   2.233   2.264   2.283
 90 B    92 A    93 A    91 B    94 A    92 B    93 B    95 A                  
  2.300   2.316   2.386   2.418   2.440   2.444   2.510   2.516
 96 A    94 B    95 B    97 A    98 A    96 B    97 B    99 A                  
  2.565   2.599   2.624   2.633   2.659   2.670   2.690   2.695
 98 B   100 A    99 B   101 A   102 A   100 B   101 B   103 A                  
  2.719   2.729   2.749   2.836   2.845   2.875   2.907   2.972
104 A   105 A   102 B   103 B   104 B   106 A   107 A   105 B                  
  3.000   3.106   3.147   3.289   3.374   3.418   3.420   3.548
108 A   106 B   107 B   109 A   108 B   110 A   109 B   111 A                  
  3.587   3.854   3.903   4.100   4.180   4.401   4.453   4.468
110 B   112 A   111 B   113 A   112 B   114 A   115 A   113 B                  
  4.492   4.566   4.695   4.798   4.892
114 B   116 A   115 B   117 A   116 B                                          
 
 Beta MOs, Unrestricted
 -- Occupied --                  
-88.750 -88.750 -10.063 -10.063 -10.053 -10.053 -10.049 -10.049
  1 B     1 A     2 A     2 B     3 B     3 A     4 B     4 A                  
-10.031 -10.031  -7.809  -7.809  -5.774  -5.774  -5.771  -5.771
  5 B     5 A     6 B     6 A     7 B     7 A     8 B     8 A                  
 -5.765  -5.765  -0.720  -0.699  -0.600  -0.578  -0.568  -0.531
  9 A     9 B    10 A    10 B    11 A    12 A    11 B    12 B                  
 -0.440  -0.413  -0.390  -0.365  -0.362  -0.313  -0.260  -0.253
 13 A    14 A    13 B    14 B    15 A    15 B    16 A    17 A                  
 -0.242  -0.237  -0.230  -0.206  -0.200  -0.195  -0.174  -0.112
 16 B    18 A    17 B    18 B    19 A    20 A    19 B    20 B                  
 -0.100  -0.093  -0.031
 21 B    21 A    22 A                                                          
 -- Virtual --                   
  0.093   0.096   0.101   0.108   0.114   0.124   0.147   0.148
 23 A    22 B    23 B    24 A    24 B    25 A    26 A    25 B                  
  0.151   0.160   0.165   0.165   0.175   0.178   0.178   0.188
 27 A    28 A    29 A    26 B    27 B    30 A    28 B    29 B                  
  0.198   0.206   0.211   0.213   0.217   0.219   0.227   0.229
 30 B    31 A    32 A    31 B    33 A    32 B    33 B    34 A                  
  0.234   0.234   0.239   0.242   0.250   0.257   0.265   0.266
 35 A    34 B    36 A    37 A    35 B    38 A    39 A    36 B                  
  0.269   0.278   0.280   0.282   0.288   0.295   0.306   0.311
 40 A    41 A    37 B    38 B    39 B    40 B    41 B    42 A                  
  0.315   0.318   0.319   0.326   0.328   0.339   0.350   0.359
 43 A    42 B    44 A    45 A    46 A    43 B    44 B    47 A                  
  0.381   0.392   0.393   0.401   0.415   0.428   0.438   0.442
 45 B    46 B    48 A    49 A    47 B    48 B    50 A    51 A                  
  0.453   0.454   0.478   0.480   0.496   0.519   0.532   0.579
 49 B    52 A    50 B    53 A    51 B    54 A    52 B    53 B                  
  0.585   0.610   0.644   0.687   0.702   0.709   0.712   0.730
 55 A    56 A    54 B    57 A    55 B    56 B    58 A    57 B                  
  0.746   0.768   0.807   0.816   0.816   0.828   0.832   0.836
 59 A    60 A    58 B    61 A    59 B    62 A    63 A    60 B                  
  0.861   0.873   0.873   0.876   0.884   0.916   0.921   0.939
 64 A    61 B    65 A    62 B    63 B    66 A    64 B    67 A                  
  0.954   0.981   0.995   1.008   1.033   1.072   1.080   1.097
 65 B    66 B    68 A    67 B    69 A    68 B    70 A    71 A                  
  1.108   1.120   1.120   1.127   1.130   1.156   1.161   1.166
 69 B    72 A    70 B    71 B    73 A    74 A    72 B    73 B                  
  1.178   1.181   1.233   1.234   1.260   1.266   1.288   1.316
 75 A    76 A    74 B    77 A    78 A    75 B    76 B    79 A                  
  1.340   1.349   1.361   1.396   1.427   1.495   1.507   1.514
 80 A    77 B    78 B    81 A    79 B    80 B    82 A    81 B                  
  1.516   1.533   1.533   1.617   1.654   1.692   1.724   1.762
 83 A    84 A    82 B    83 B    85 A    84 B    86 A    85 B                  
  1.796   1.855   1.867   1.971   1.991   2.034   2.057   2.075
 86 B    87 A    87 B    88 A    89 A    90 A    88 B    89 B                  
  2.089   2.148   2.152   2.160   2.163   2.217   2.235   2.272
 91 A    90 B    92 A    93 A    91 B    94 A    92 B    93 B                  
  2.291   2.310   2.322   2.394   2.422   2.443   2.447   2.512
 95 A    96 A    94 B    95 B    97 A    98 A    96 B    97 B                  
  2.518   2.569   2.602   2.625   2.635   2.663   2.675   2.691
 99 A    98 B   100 A    99 B   101 A   102 A   100 B   101 B                  
  2.699   2.725   2.732   2.753   2.839   2.845   2.879   2.909
103 A   104 A   105 A   102 B   103 B   104 B   106 A   107 A                  
  2.975   3.001   3.109   3.148   3.289   3.375   3.418   3.420
105 B   108 A   106 B   107 B   109 A   108 B   110 A   109 B                  
  3.549   3.589   3.855   3.904   4.102   4.182   4.405   4.455
111 A   110 B   112 A   111 B   113 A   112 B   114 A   115 A                  
  4.473   4.494   4.571   4.700   4.801   4.895
113 B   114 B   116 A   115 B   117 A   116 B                                  
 --------------------------------------------------------------
 
          Ground-State Mulliken Net Atomic Charges

     Atom                 Charge (a.u.)    Spin (a.u.)
  --------------------------------------------------------
      1 S                    -0.316426       0.103708
      2 C                    -0.097278       0.244853
      3 C                    -0.396398      -0.072153
      4 C                     0.178899       0.242342
      5 C                    -0.166189       0.002220
      6 H                     0.072871      -0.010061
      7 C                    -0.166189       0.002220
      8 S                    -0.316426       0.103708
      9 C                     0.178899       0.242342
     10 C                    -0.097278       0.244853
     11 C                    -0.396398      -0.072153
     12 H                     0.072138       0.004184
     13 H                     0.152384      -0.015093
     14 H                     0.072138       0.004184
     15 H                     0.152384      -0.015093
     16 H                     0.072871      -0.010061
  --------------------------------------------------------
  Sum of atomic charges =    -1.000000
  Sum of spin   charges =     1.000000

 -----------------------------------------------------------------
                    Cartesian Multipole Moments
 -----------------------------------------------------------------
    Charge (ESU x 10^10)
                -4.8032
    Dipole Moment (Debye)
         X      -0.0000      Y       0.0000      Z      -0.4485
       Tot       0.4485
    Quadrupole Moments (Debye-Ang)
        XX     -99.2582     XY       0.3536     YY     -87.2352
        XZ       0.0000     YZ      -0.0000     ZZ     -83.4133
    Octopole Moments (Debye-Ang^2)
       XXX       0.0000    XXY      -0.0000    XYY       0.0000
       YYY       0.0000    XXZ       7.9474    XYZ      -1.3179
       YYZ       3.8623    XZZ      -0.0000    YZZ       0.0000
       ZZZ      -2.5804
    Hexadecapole Moments (Debye-Ang^3)
      XXXX   -2481.0758   XXXY       4.5696   XXYY    -489.8460
      XYYY      -0.8294   YYYY    -144.6484   XXXZ       0.0000
      XXYZ      -0.0000   XYYZ       0.0000   YYYZ      -0.0000
      XXZZ    -504.2342   XYZZ       2.1491   YYZZ    -157.1585
      XZZZ       0.0000   YZZZ      -0.0000   ZZZZ    -679.6928
 -----------------------------------------------------------------
 Calculating analytic gradient of the SCF energy
 Gradient of SCF Energy
            1           2           3           4           5           6
    1   0.0003151  -0.0001962   0.0000243  -0.0000764  -0.0001272  -0.0000126
    2  -0.0003861   0.0003172  -0.0004142   0.0018837  -0.0025972  -0.0001315
    3   0.0004910   0.0000119  -0.0001218   0.0004658  -0.0006695  -0.0000802
            7           8           9          10          11          12
    1   0.0001272  -0.0003151   0.0000764   0.0001962  -0.0000243   0.0000332
    2   0.0025972   0.0003861  -0.0018837  -0.0003172   0.0004142  -0.0000935
    3  -0.0006695   0.0004910   0.0004658   0.0000119  -0.0001218  -0.0000577
           13          14          15          16
    1  -0.0000218  -0.0000332   0.0000218   0.0000126
    2  -0.0001238   0.0000935   0.0001238   0.0001315
    3  -0.0000395  -0.0000577  -0.0000395  -0.0000802
 Max gradient component =       2.597E-03
 RMS gradient           =       7.027E-04
 Gradient time:  CPU 1.77 s  wall 1.78 s
 Geometry Optimization Parameters
   NAtoms,    NIC,     NZ,  NCons,   NDum,   NFix, NCnnct, MaxDiis
       16     111       0       1       0       0       0       0

 Cartesian Hessian Update
 Hessian Updated using BFGS Update


** CONSTRAINED OPTIMIZATION IN DELOCALIZED INTERNAL COORDINATES **
   Searching for a Minimum

   Optimization Cycle:   3

                       Coordinates (Angstroms)
     ATOM                X               Y               Z
      1  S         1.6681895242   -0.0994805892    1.1857853648
      2  C         3.1913556597   -0.0148709946    0.2951429244
      3  C         2.9542323572    0.0748251713   -1.0651796913
      4  C         1.5902212045    0.0918268504   -1.4223644980
      5  C         0.7053300176   -0.0020082173   -0.3210332143
      6  H         1.2352089474    0.1795493004   -2.4434930870
      7  C        -0.7053300176    0.0020082173   -0.3210332143
      8  S        -1.6681895242    0.0994805892    1.1857853648
      9  C        -1.5902212045   -0.0918268504   -1.4223644980
     10  C        -3.1913556597    0.0148709946    0.2951429244
     11  C        -2.9542323572   -0.0748251713   -1.0651796913
     12  H        -3.7581128706   -0.1426285964   -1.7947343046
     13  H         4.1335299542   -0.0306820141    0.8246285240
     14  H         3.7581128706    0.1426285964   -1.7947343046
     15  H        -4.1335299542    0.0306820141    0.8246285240
     16  H        -1.2352089474   -0.1795493004   -2.4434930870
   Point Group: c2    Number of degrees of freedom:    22


   Energy is  -1104.844485662

              Constraints and their Current Values
                                        Value     Constraint
   Dihedral:        4   5   7   9       10.000       10.000
 Hessian Updated using BFGS Update

 18 Hessian modes will be used to form the next step
  Hessian Eigenvalues:
     0.022889    0.045054    0.046486    0.159852    0.160015    0.160352
     0.218437    0.232689    0.254633    0.284107    0.291588    0.351003
     0.354275    0.358714    0.414378    0.427461    0.461882    0.473683

 Minimum Search - Taking Simple RFO Step
 Searching for Lamda that Minimizes Along All modes
 Value Taken    Lamda =  -0.00002598
 Step Taken.  Stepsize is  0.030790

                             Maximum     Tolerance    Cnvgd?
         Gradient           0.000699      0.000300      NO
         Displacement       0.020252      0.001200      NO
         Energy change     -0.000063      0.000001      NO


 New Cartesian Coordinates Obtained by Inverse Iteration

 Displacement from previous Coordinates is:  0.042399
 ----------------------------------------------------------------
             Standard Nuclear Orientation (Angstroms)
    I     Atom           X                Y                Z
 ----------------------------------------------------------------
    1      S       1.6685335654    -0.0931103273     1.1854565953
    2      C       3.1919054299    -0.0131790316     0.2949979193
    3      C       2.9540308045     0.0715500893    -1.0655787086
    4      C       1.5898365382     0.0849932356    -1.4225931359
    5      C       0.7053985752    -0.0050988595    -0.3197936650
    6      H       1.2343451785     0.1721688468    -2.4434172397
    7      C      -0.7053985752     0.0050988595    -0.3197936650
    8      S      -1.6685335654     0.0931103273     1.1854565953
    9      C      -1.5898365382    -0.0849932356    -1.4225931359
   10      C      -3.1919054299     0.0131790316     0.2949979193
   11      C      -2.9540308045    -0.0715500893    -1.0655787086
   12      H      -3.7579420224    -0.1380754761    -1.7951766963
   13      H       4.1339970147    -0.0227861687     0.8248569489
   14      H       3.7579420224     0.1380754761    -1.7951766963
   15      H      -4.1339970147     0.0227861687     0.8248569489
   16      H      -1.2343451785    -0.1721688468    -2.4434172397
 ----------------------------------------------------------------
 Molecular Point Group                 C2    NOp =  2
 Largest Abelian Subgroup              C2    NOp =  2
 Nuclear Repulsion Energy =   626.5892096257 hartrees
 There are       44 alpha and       43 beta electrons
 Applying Cartesian multipole field
    Component          Value
    ---------          -----
     (2,0,0)        1.00000E-11
     (0,2,0)        2.00000E-11
     (0,0,2)       -3.00000E-11
 Nucleus-field energy     =     0.0000000037 hartrees
 Requested basis set is 6-31++G(d,p)
 There are 76 shells and 234 basis functions
 A cutoff of  1.0D-11 yielded   2489 shell pairs
 There are     24607 function pairs
 Smallest overlap matrix eigenvalue = 7.39E-07

 Q-Chem warning in module /project/projectdirs/jcesr/qchem/qc44/cnl_qc441/compile/cori/qc_src/stvman/mkSTV.C, line 257:

 Overlap eigenvalue is smaller than square root of threshold

 Linear dependence detected in AO basis
 Number of orthogonalized atomic orbitals = 233
 Maximum deviation from orthogonality = 6.720E-11
 Guess MOs from SCF MO coefficient file
 Reading MOs from coefficient file
 Reading MOs from coefficient file
 An unrestricted hybrid HF-DFT SCF calculation will be
 performed using Pulay DIIS extrapolation
 Exchange:     0.2000 Hartree-Fock + 0.0800 Slater + 0.7200 B88
 Correlation:  0.1900 VWN1RPA + 0.8100 LYP
 Using SG-1 standard quadrature grid
 SCF converges when DIIS error is below 1.0E-08
 Geometry optimization detected.  Setting ReadMinima to 0
 Setting SaveMinima to 0
 ---------------------------------------
  Cycle       Energy         DIIS Error
 ---------------------------------------
    1   -1104.8445756166      2.93E-04
    2   -1104.8444979897      2.16E-05
    3   -1104.8444811781      5.09E-05
    4   -1104.8445028916      3.22E-06
    5   -1104.8445029632      1.69E-06
    6   -1104.8445029862      5.68E-07
    7   -1104.8445029895      1.57E-07
    8   -1104.8445029901      3.37E-08
    9   -1104.8445029898      1.87E-08
   10   -1104.8445029900      7.36E-09 Convergence criterion met
 ---------------------------------------
 <S^2> = 0.7626
 SCF time:  CPU 6.50 s  wall 5.80 s
 SCF   energy in the final basis set = -1104.8445029900
 Total energy in the final basis set = -1104.8445029900
 
 --------------------------------------------------------------
             Orbital Energies (a.u.) and Symmetries
 --------------------------------------------------------------
 
 Alpha MOs, Unrestricted
 -- Occupied --                  
-88.751 -88.751 -10.065 -10.064 -10.056 -10.056 -10.049 -10.049
  1 B     1 A     2 A     2 B     3 B     3 A     4 B     4 A                  
-10.033 -10.033  -7.810  -7.810  -5.774  -5.774  -5.771  -5.771
  5 B     5 A     6 B     6 A     7 B     7 A     8 B     8 A                  
 -5.767  -5.767  -0.724  -0.702  -0.606  -0.582  -0.571  -0.535
  9 A     9 B    10 A    10 B    11 A    12 A    11 B    12 B                  
 -0.447  -0.415  -0.393  -0.368  -0.364  -0.315  -0.262  -0.254
 13 A    14 A    13 B    14 B    15 A    15 B    16 A    17 A                  
 -0.244  -0.241  -0.240  -0.209  -0.208  -0.197  -0.176  -0.127
 16 B    17 B    18 A    19 A    18 B    20 A    19 B    20 B                  
 -0.110  -0.101  -0.050   0.047
 21 B    21 A    22 A    22 B                                                  
 -- Virtual --                   
  0.093   0.097   0.109   0.115   0.125   0.146   0.149   0.149
 23 A    23 B    24 A    24 B    25 A    26 A    25 B    27 A                  
  0.150   0.164   0.164   0.173   0.176   0.178   0.188   0.198
 28 A    26 B    29 A    27 B    28 B    30 A    29 B    30 B                  
  0.206   0.208   0.211   0.216   0.217   0.227   0.228   0.234
 31 A    32 A    31 B    32 B    33 A    33 B    34 A    34 B                  
  0.234   0.236   0.240   0.250   0.256   0.262   0.266   0.267
 35 A    36 A    37 A    35 B    38 A    39 A    36 B    40 A                  
  0.275   0.278   0.280   0.286   0.294   0.306   0.308   0.315
 41 A    37 B    38 B    39 B    40 B    41 B    42 A    43 A                  
  0.316   0.319   0.325   0.326   0.339   0.351   0.359   0.380
 42 B    44 A    45 A    46 A    43 B    44 B    47 A    45 B                  
  0.393   0.393   0.401   0.415   0.429   0.434   0.441   0.451
 46 B    48 A    49 A    47 B    48 B    50 A    51 A    49 B                  
  0.453   0.478   0.479   0.496   0.518   0.529   0.578   0.583
 52 A    50 B    53 A    51 B    54 A    52 B    53 B    55 A                  
  0.609   0.641   0.684   0.700   0.708   0.710   0.729   0.745
 56 A    54 B    57 A    55 B    56 B    58 A    57 B    59 A                  
  0.766   0.798   0.805   0.812   0.825   0.828   0.833   0.860
 60 A    58 B    61 A    59 B    62 A    63 A    60 B    64 A                  
  0.864   0.870   0.873   0.883   0.909   0.920   0.937   0.953
 61 B    65 A    62 B    63 B    66 A    64 B    67 A    65 B                  
  0.972   0.987   1.001   1.031   1.071   1.078   1.096   1.105
 66 B    68 A    67 B    69 A    68 B    70 A    71 A    69 B                  
  1.115   1.120   1.126   1.128   1.155   1.161   1.165   1.174
 72 A    70 B    71 B    73 A    74 A    72 B    73 B    75 A                  
  1.179   1.232   1.233   1.257   1.263   1.285   1.312   1.339
 76 A    74 B    77 A    78 A    75 B    76 B    79 A    80 A                  
  1.349   1.360   1.393   1.419   1.493   1.503   1.511   1.511
 77 B    78 B    81 A    79 B    80 B    82 A    81 B    83 A                  
  1.526   1.531   1.616   1.652   1.688   1.718   1.757   1.792
 82 B    84 A    83 B    85 A    84 B    86 A    85 B    86 B                  
  1.844   1.857   1.966   1.989   2.031   2.056   2.074   2.087
 87 A    87 B    88 A    89 A    90 A    88 B    89 B    91 A                  
  2.145   2.149   2.157   2.158   2.214   2.233   2.265   2.283
 90 B    92 A    93 A    91 B    94 A    92 B    93 B    95 A                  
  2.299   2.315   2.386   2.418   2.440   2.445   2.510   2.516
 96 A    94 B    95 B    97 A    98 A    96 B    97 B    99 A                  
  2.565   2.599   2.624   2.632   2.660   2.671   2.691   2.695
 98 B   100 A    99 B   101 A   102 A   100 B   101 B   103 A                  
  2.719   2.729   2.750   2.836   2.845   2.875   2.907   2.972
104 A   105 A   102 B   103 B   104 B   106 A   107 A   105 B                  
  2.999   3.106   3.146   3.288   3.374   3.418   3.420   3.548
108 A   106 B   107 B   109 A   108 B   110 A   109 B   111 A                  
  3.587   3.854   3.903   4.100   4.180   4.401   4.453   4.468
110 B   112 A   111 B   113 A   112 B   114 A   115 A   113 B                  
  4.493   4.566   4.695   4.798   4.892
114 B   116 A   115 B   117 A   116 B                                          
 
 Beta MOs, Unrestricted
 -- Occupied --                  
-88.750 -88.750 -10.063 -10.063 -10.053 -10.053 -10.050 -10.050
  1 B     1 A     2 A     2 B     3 B     3 A     4 B     4 A                  
-10.031 -10.031  -7.809  -7.809  -5.774  -5.774  -5.771  -5.771
  5 B     5 A     6 B     6 A     7 B     7 A     8 B     8 A                  
 -5.765  -5.765  -0.720  -0.699  -0.600  -0.578  -0.568  -0.531
  9 A     9 B    10 A    10 B    11 A    12 A    11 B    12 B                  
 -0.440  -0.413  -0.390  -0.365  -0.362  -0.313  -0.260  -0.253
 13 A    14 A    13 B    14 B    15 A    15 B    16 A    17 A                  
 -0.242  -0.237  -0.230  -0.206  -0.200  -0.195  -0.174  -0.112
 16 B    18 A    17 B    18 B    19 A    20 A    19 B    20 B                  
 -0.100  -0.093  -0.031
 21 B    21 A    22 A                                                          
 -- Virtual --                   
  0.093   0.096   0.101   0.108   0.115   0.124   0.148   0.149
 23 A    22 B    23 B    24 A    24 B    25 A    26 A    25 B                  
  0.151   0.160   0.165   0.165   0.175   0.178   0.178   0.188
 27 A    28 A    29 A    26 B    27 B    30 A    28 B    29 B                  
  0.198   0.206   0.211   0.214   0.217   0.219   0.227   0.229
 30 B    31 A    32 A    31 B    33 A    32 B    33 B    34 A                  
  0.234   0.234   0.239   0.242   0.251   0.257   0.265   0.267
 35 A    34 B    36 A    37 A    35 B    38 A    39 A    36 B                  
  0.269   0.277   0.280   0.281   0.288   0.295   0.307   0.311
 40 A    41 A    37 B    38 B    39 B    40 B    41 B    42 A                  
  0.315   0.318   0.319   0.326   0.327   0.339   0.351   0.359
 43 A    42 B    44 A    45 A    46 A    43 B    44 B    47 A                  
  0.380   0.393   0.393   0.401   0.417   0.429   0.437   0.442
 45 B    46 B    48 A    49 A    47 B    48 B    50 A    51 A                  
  0.453   0.454   0.479   0.480   0.496   0.519   0.532   0.580
 49 B    52 A    50 B    53 A    51 B    54 A    52 B    53 B                  
  0.585   0.610   0.644   0.688   0.702   0.710   0.712   0.731
 55 A    56 A    54 B    57 A    55 B    56 B    58 A    57 B                  
  0.746   0.768   0.807   0.816   0.816   0.828   0.832   0.837
 59 A    60 A    58 B    61 A    59 B    62 A    63 A    60 B                  
  0.861   0.873   0.873   0.875   0.884   0.916   0.921   0.939
 64 A    61 B    65 A    62 B    63 B    66 A    64 B    67 A                  
  0.955   0.980   0.995   1.007   1.033   1.072   1.080   1.097
 65 B    66 B    68 A    67 B    69 A    68 B    70 A    71 A                  
  1.108   1.120   1.120   1.128   1.130   1.157   1.162   1.167
 69 B    72 A    70 B    71 B    73 A    74 A    72 B    73 B                  
  1.178   1.181   1.233   1.234   1.260   1.266   1.289   1.316
 75 A    76 A    74 B    77 A    78 A    75 B    76 B    79 A                  
  1.340   1.349   1.362   1.396   1.426   1.496   1.506   1.514
 80 A    77 B    78 B    81 A    79 B    80 B    82 A    81 B                  
  1.516   1.533   1.533   1.617   1.653   1.691   1.725   1.764
 83 A    82 B    84 A    83 B    85 A    84 B    86 A    85 B                  
  1.795   1.855   1.867   1.971   1.991   2.035   2.057   2.075
 86 B    87 A    87 B    88 A    89 A    90 A    88 B    89 B                  
  2.089   2.149   2.153   2.160   2.162   2.217   2.234   2.272
 91 A    90 B    92 A    93 A    91 B    94 A    92 B    93 B                  
  2.291   2.309   2.322   2.394   2.422   2.443   2.448   2.512
 95 A    96 A    94 B    95 B    97 A    98 A    96 B    97 B                  
  2.518   2.569   2.602   2.625   2.634   2.664   2.676   2.692
 99 A    98 B   100 A    99 B   101 A   102 A   100 B   101 B                  
  2.699   2.725   2.732   2.754   2.839   2.845   2.879   2.909
103 A   104 A   105 A   102 B   103 B   104 B   106 A   107 A                  
  2.975   3.001   3.108   3.147   3.289   3.375   3.418   3.420
105 B   108 A   106 B   107 B   109 A   108 B   110 A   109 B                  
  3.550   3.589   3.855   3.904   4.102   4.182   4.405   4.455
111 A   110 B   112 A   111 B   113 A   112 B   114 A   115 A                  
  4.473   4.495   4.572   4.700   4.801   4.895
[...]
      3 C                    -0.420492      -0.072004
      4 C                     0.199410       0.242765
      5 C                    -0.158495       0.002335
      6 H                     0.072860      -0.010281
      7 C                    -0.158495       0.002335
      8 S                    -0.321603       0.103430
      9 C                     0.199410       0.242765
     10 C                    -0.096550       0.244598
     11 C                    -0.420492      -0.072004
     12 H                     0.071659       0.004206
     13 H                     0.153212      -0.015049
     14 H                     0.071659       0.004206
     15 H                     0.153212      -0.015049
     16 H                     0.072860      -0.010281
  --------------------------------------------------------
  Sum of atomic charges =    -1.000000
  Sum of spin   charges =     1.000000

 -----------------------------------------------------------------
                    Cartesian Multipole Moments
 -----------------------------------------------------------------
    Charge (ESU x 10^10)
                -4.8032
    Dipole Moment (Debye)
         X       0.0000      Y       0.0000      Z      -0.4383
       Tot       0.4383
    Quadrupole Moments (Debye-Ang)
        XX     -99.2341     XY       0.4459     YY     -87.2369
        XZ      -0.0000     YZ      -0.0000     ZZ     -83.4040
    Octopole Moments (Debye-Ang^2)
       XXX      -0.0000    XXY      -0.0000    XYY       0.0000
       YYY       0.0000    XXZ       8.1098    XYZ      -1.1334
       YYZ       3.9368    XZZ       0.0000    YZZ       0.0000
       ZZZ      -2.3147
    Hexadecapole Moments (Debye-Ang^3)
      XXXX   -2479.7682   XXXY       5.1686   XXYY    -489.5709
      XYYY      -1.9935   YYYY    -143.6883   XXXZ      -0.0000
      XXYZ      -0.0000   XYYZ       0.0000   YYYZ      -0.0000
      XXZZ    -503.8494   XYZZ       1.9410   YYZZ    -157.2155
      XZZZ       0.0000   YZZZ      -0.0000   ZZZZ    -679.6388
 -----------------------------------------------------------------
 Calculating analytic gradient of the SCF energy
 Gradient of SCF Energy
            1           2           3           4           5           6
    1  -0.0000381   0.0000215  -0.0000115   0.0000327  -0.0000171  -0.0000042
    2   0.0000151  -0.0000486   0.0000330   0.0015319  -0.0036195   0.0000584
    3   0.0000028  -0.0000147   0.0000124   0.0001353  -0.0001445   0.0000053
            7           8           9          10          11          12
    1   0.0000170   0.0000381  -0.0000327  -0.0000215   0.0000115  -0.0000046
    2   0.0036195  -0.0000151  -0.0015319   0.0000486  -0.0000330   0.0000012
    3  -0.0001445   0.0000028   0.0001353  -0.0000147   0.0000124   0.0000019
           13          14          15          16
    1  -0.0000020   0.0000046   0.0000020   0.0000042
    2   0.0000295  -0.0000012  -0.0000295  -0.0000584
    3   0.0000015   0.0000019   0.0000015   0.0000053
 Max gradient component =       3.619E-03
 RMS gradient           =       8.036E-04
 Gradient time:  CPU 1.81 s  wall 1.77 s
 Geometry Optimization Parameters
   NAtoms,    NIC,     NZ,  NCons,   NDum,   NFix, NCnnct, MaxDiis
       16     111       0       1       0       0       0       0

 Cartesian Hessian Update
 Hessian Updated using BFGS Update


** CONSTRAINED OPTIMIZATION IN DELOCALIZED INTERNAL COORDINATES **
   Searching for a Minimum

   Optimization Cycle:   7

                       Coordinates (Angstroms)
     ATOM                X               Y               Z
      1  S         1.6644386002   -0.0843037344    1.1843912284
      2  C         3.1902782721   -0.0088470913    0.2973839678
      3  C         2.9558535103    0.0695757927   -1.0640750544
      4  C         1.5926860935    0.0765590925   -1.4251223530
      5  C         0.7054375188   -0.0087517726   -0.3242864200
      6  H         1.2398526349    0.1578050199   -2.4474252103
      7  C        -0.7054375188    0.0087517726   -0.3242864200
      8  S        -1.6644386002    0.0843037344    1.1843912284
      9  C        -1.5926860935   -0.0765590925   -1.4251223530
     10  C        -3.1902782721    0.0088470913    0.2973839678
     11  C        -2.9558535103   -0.0695757927   -1.0640750544
     12  H        -3.7617530860   -0.1303622739   -1.7920132506
     13  H         4.1308871242   -0.0125445945    0.8298991102
     14  H         3.7617530860    0.1303622739   -1.7920132506
     15  H        -4.1308871242    0.0125445945    0.8298991102
     16  H        -1.2398526349   -0.1578050199   -2.4474252103
   Point Group: c2    Number of degrees of freedom:    22


   Energy is  -1104.844512760

              Constraints and their Current Values
                                        Value     Constraint
   Dihedral:        4   5   7   9       10.000       10.000
 Hessian Updated using BFGS Update

 21 Hessian modes will be used to form the next step
  Hessian Eigenvalues:
     0.009584    0.023274    0.045000    0.045004    0.045484    0.046390
     0.159937    0.160062    0.160407    0.220148    0.242528    0.258083
     0.275529    0.286695    0.351052    0.354583    0.358989    0.416553
     0.430336    0.462661    0.474070

 Minimum Search - Taking Simple RFO Step
 Searching for Lamda that Minimizes Along All modes
 Value Taken    Lamda =   0.00000000
 Step Taken.  Stepsize is  0.004464

                             Maximum     Tolerance    Cnvgd?
         Gradient           0.000094      0.000300     YES
         Displacement       0.002763      0.001200      NO
         Energy change     -0.000001      0.000001     YES

 Final energy is   -1104.84451276032     


 ******************************
 **  OPTIMIZATION CONVERGED  **
 ******************************

                       Coordinates (Angstroms)
     ATOM                X               Y               Z
      1  S         1.6644386002   -0.0843037344    1.1843912284
      2  C         3.1902782721   -0.0088470913    0.2973839678
      3  C         2.9558535103    0.0695757927   -1.0640750544
      4  C         1.5926860935    0.0765590925   -1.4251223530
      5  C         0.7054375188   -0.0087517726   -0.3242864200
      6  H         1.2398526349    0.1578050199   -2.4474252103
      7  C        -0.7054375188    0.0087517726   -0.3242864200
      8  S        -1.6644386002    0.0843037344    1.1843912284
      9  C        -1.5926860935   -0.0765590925   -1.4251223530
     10  C        -3.1902782721    0.0088470913    0.2973839678
     11  C        -2.9558535103   -0.0695757927   -1.0640750544
     12  H        -3.7617530860   -0.1303622739   -1.7920132506
     13  H         4.1308871242   -0.0125445945    0.8298991102
     14  H         3.7617530860    0.1303622739   -1.7920132506
     15  H        -4.1308871242    0.0125445945    0.8298991102
     16  H        -1.2398526349   -0.1578050199   -2.4474252103

Z-matrix Print:
$molecule
-1 2
S 
C  1 1.766540
H  2 1.080894 1 120.273192
C  2 1.383718 1 110.495059 3 179.102180 0
H  4 1.087687 2 122.420514 1 -179.667434 0
C  4 1.410188 2 114.579634 1 -0.226055 0
H  6 1.084525 4 123.793159 2 -178.461893 0
C  6 1.416449 4 113.967946 2 0.462517 0
C  8 1.410984 6 128.725800 4 -178.160781 0
C  9 1.416449 8 128.725800 6 -10.000014 0
H  10 1.084525 9 122.229831 8 0.782532 0
C  10 1.410188 9 113.967946 8 -178.160781 0
H  12 1.087687 10 122.997359 9 179.900272 0
C  12 1.383718 10 114.579634 9 0.462517 0
H  14 1.080894 12 129.224403 10 178.773018 0
S  14 1.766540 12 110.495059 10 -0.226055 0
$end

 
 --------------------------------------------------------------
             Orbital Energies (a.u.) and Symmetries
 --------------------------------------------------------------
 
 Alpha MOs, Unrestricted
 -- Occupied --                  
-88.751 -88.751 -10.065 -10.064 -10.056 -10.056 -10.049 -10.049
  1 B     1 A     2 A     2 B     3 B     3 A     4 B     4 A                  
-10.033 -10.033  -7.810  -7.810  -5.774  -5.774  -5.771  -5.771
  5 B     5 A     6 B     6 A     7 B     7 A     8 B     8 A                  
 -5.767  -5.767  -0.724  -0.702  -0.606  -0.582  -0.571  -0.535
  9 A     9 B    10 A    10 B    11 A    12 A    11 B    12 B                  
 -0.447  -0.415  -0.393  -0.368  -0.364  -0.315  -0.262  -0.254
 13 A    14 A    13 B    14 B    15 A    15 B    16 A    17 A                  
 -0.244  -0.241  -0.240  -0.209  -0.208  -0.197  -0.176  -0.128
 16 B    17 B    18 A    19 A    18 B    20 A    19 B    20 B                  
 -0.110  -0.101  -0.050   0.047
 21 B    21 A    22 A    22 B                                                  
 -- Virtual --                   
  0.093   0.097   0.109   0.115   0.125   0.146   0.149   0.149
 23 A    23 B    24 A    24 B    25 A    26 A    25 B    27 A                  
  0.150   0.164   0.164   0.173   0.176   0.178   0.188   0.197
 28 A    29 A    26 B    27 B    28 B    30 A    29 B    30 B                  
  0.206   0.209   0.212   0.216   0.217   0.227   0.228   0.234
 31 A    32 A    31 B    32 B    33 A    33 B    34 A    34 B                  
  0.234   0.236   0.240   0.250   0.256   0.262   0.267   0.267
 35 A    36 A    37 A    35 B    38 A    39 A    36 B    40 A                  
  0.275   0.278   0.280   0.286   0.294   0.307   0.308   0.315
 41 A    37 B    38 B    39 B    40 B    41 B    42 A    43 A                  
  0.316   0.319   0.325   0.326   0.339   0.351   0.359   0.379
 42 B    44 A    45 A    46 A    43 B    44 B    47 A    45 B                  
  0.393   0.393   0.401   0.417   0.430   0.434   0.441   0.451
 48 A    46 B    49 A    47 B    48 B    50 A    51 A    49 B                  
  0.453   0.479   0.479   0.496   0.518   0.529   0.578   0.584
 52 A    50 B    53 A    51 B    54 A    52 B    53 B    55 A                  
  0.609   0.641   0.685   0.701   0.709   0.710   0.731   0.745
 56 A    54 B    57 A    55 B    56 B    58 A    57 B    59 A                  
  0.766   0.797   0.805   0.811   0.825   0.828   0.835   0.860
 60 A    58 B    61 A    59 B    62 A    63 A    60 B    64 A                  
  0.863   0.870   0.874   0.883   0.909   0.920   0.937   0.954
 61 B    65 A    62 B    63 B    66 A    64 B    67 A    65 B                  
  0.972   0.987   1.000   1.031   1.071   1.078   1.096   1.106
 66 B    68 A    67 B    69 A    68 B    70 A    71 A    69 B                  
  1.115   1.121   1.126   1.128   1.155   1.161   1.166   1.174
 72 A    70 B    71 B    73 A    74 A    72 B    73 B    75 A                  
  1.179   1.232   1.233   1.257   1.263   1.286   1.312   1.339
 76 A    74 B    77 A    78 A    75 B    76 B    79 A    80 A                  
  1.349   1.360   1.393   1.418   1.495   1.502   1.508   1.511
 77 B    78 B    81 A    79 B    80 B    82 A    81 B    83 A                  
  1.527   1.531   1.616   1.652   1.688   1.719   1.759   1.790
 82 B    84 A    83 B    85 A    84 B    86 A    85 B    86 B                  
  1.844   1.857   1.966   1.989   2.031   2.057   2.075   2.087
 87 A    87 B    88 A    89 A    90 A    88 B    89 B    91 A                  
  2.146   2.150   2.157   2.157   2.214   2.233   2.265   2.283
 90 B    92 A    91 B    93 A    94 A    92 B    93 B    95 A                  
  2.298   2.315   2.386   2.418   2.439   2.445   2.510   2.516
 96 A    94 B    95 B    97 A    98 A    96 B    97 B    99 A                  
  2.564   2.599   2.624   2.632   2.659   2.671   2.692   2.695
 98 B   100 A    99 B   101 A   102 A   100 B   101 B   103 A                  
  2.720   2.729   2.750   2.836   2.845   2.875   2.907   2.971
104 A   105 A   102 B   103 B   104 B   106 A   107 A   105 B                  
  2.999   3.106   3.146   3.288   3.374   3.418   3.420   3.548
108 A   106 B   107 B   109 A   108 B   110 A   109 B   111 A                  
  3.588   3.854   3.903   4.100   4.181   4.400   4.453   4.469
110 B   112 A   111 B   113 A   112 B   114 A   115 A   113 B                  
  4.494   4.566   4.695   4.798   4.892
114 B   116 A   115 B   117 A   116 B                                          
 
 Beta MOs, Unrestricted
 -- Occupied --                  
-88.750 -88.750 -10.063 -10.063 -10.052 -10.052 -10.050 -10.050
  1 B     1 A     2 A     2 B     3 B     3 A     4 B     4 A                  
-10.031 -10.031  -7.809  -7.809  -5.774  -5.774  -5.771  -5.770
  5 B     5 A     6 B     6 A     7 B     7 A     8 B     8 A                  
 -5.765  -5.765  -0.720  -0.699  -0.600  -0.578  -0.568  -0.531
  9 A     9 B    10 A    10 B    11 A    12 A    11 B    12 B                  
 -0.440  -0.413  -0.390  -0.365  -0.362  -0.313  -0.260  -0.253
 13 A    14 A    13 B    14 B    15 A    15 B    16 A    17 A                  
 -0.242  -0.237  -0.230  -0.206  -0.200  -0.195  -0.173  -0.112
 16 B    18 A    17 B    18 B    19 A    20 A    19 B    20 B                  
 -0.100  -0.093  -0.031
 21 B    21 A    22 A                                                          
 -- Virtual --                   
  0.093   0.096   0.101   0.108   0.115   0.124   0.147   0.149
 23 A    22 B    23 B    24 A    24 B    25 A    26 A    25 B                  
  0.151   0.161   0.165   0.166   0.175   0.178   0.179   0.188
 27 A    28 A    29 A    26 B    27 B    30 A    28 B    29 B                  
  0.198   0.206   0.212   0.214   0.217   0.220   0.227   0.229
 30 B    31 A    32 A    31 B    33 A    32 B    33 B    34 A                  
  0.234   0.234   0.239   0.242   0.251   0.257   0.265   0.267
 35 A    34 B    36 A    37 A    35 B    38 A    39 A    36 B                  
  0.269   0.277   0.280   0.282   0.288   0.295   0.307   0.312
 40 A    41 A    37 B    38 B    39 B    40 B    41 B    42 A                  
  0.315   0.318   0.319   0.325   0.327   0.340   0.351   0.359
 43 A    42 B    44 A    45 A    46 A    43 B    44 B    47 A                  
  0.379   0.393   0.393   0.401   0.419   0.430   0.437   0.442
 45 B    48 A    46 B    49 A    47 B    48 B    50 A    51 A                  
  0.453   0.454   0.480   0.480   0.496   0.519   0.532   0.580
 49 B    52 A    53 A    50 B    51 B    54 A    52 B    53 B                  
  0.585   0.610   0.644   0.688   0.703   0.710   0.712   0.733
 55 A    56 A    54 B    57 A    55 B    56 B    58 A    57 B                  
  0.746   0.768   0.806   0.816   0.816   0.828   0.832   0.839
 59 A    60 A    58 B    61 A    59 B    62 A    63 A    60 B                  
  0.861   0.872   0.873   0.875   0.884   0.916   0.922   0.939
 64 A    61 B    65 A    62 B    63 B    66 A    64 B    67 A                  
  0.956   0.979   0.995   1.006   1.033   1.072   1.080   1.096
 65 B    66 B    68 A    67 B    69 A    68 B    70 A    71 A                  
  1.109   1.120   1.121   1.128   1.129   1.157   1.162   1.167
 69 B    72 A    70 B    71 B    73 A    74 A    72 B    73 B                  
  1.177   1.181   1.234   1.234   1.260   1.266   1.290   1.316
 75 A    76 A    74 B    77 A    78 A    75 B    76 B    79 A                  
  1.340   1.349   1.363   1.396   1.426   1.498   1.506   1.511
 80 A    77 B    78 B    81 A    79 B    80 B    82 A    81 B                  
  1.516   1.533   1.533   1.617   1.654   1.690   1.725   1.767
 83 A    82 B    84 A    83 B    85 A    84 B    86 A    85 B                  
  1.793   1.855   1.867   1.971   1.990   2.035   2.057   2.076
 86 B    87 A    87 B    88 A    89 A    90 A    88 B    89 B                  
  2.089   2.150   2.154   2.160   2.162   2.217   2.234   2.272
 91 A    90 B    92 A    93 A    91 B    94 A    92 B    93 B                  
  2.291   2.308   2.322   2.394   2.423   2.441   2.448   2.512
 95 A    96 A    94 B    95 B    97 A    98 A    96 B    97 B                  
  2.518   2.569   2.602   2.625   2.634   2.663   2.676   2.693
 99 A    98 B   100 A    99 B   101 A   102 A   100 B   101 B                  
  2.699   2.726   2.732   2.754   2.839   2.845   2.879   2.909
103 A   104 A   105 A   102 B   103 B   104 B   106 A   107 A                  
  2.974   3.001   3.109   3.148   3.289   3.375   3.418   3.420
105 B   108 A   106 B   107 B   109 A   108 B   110 A   109 B                  
  3.549   3.589   3.855   3.904   4.102   4.182   4.405   4.455
111 A   110 B   112 A   111 B   113 A   112 B   114 A   115 A                  
  4.474   4.496   4.572   4.700   4.801   4.895
113 B   114 B   116 A   115 B   117 A   116 B                                  
 --------------------------------------------------------------
 
          Ground-State Mulliken Net Atomic Charges

     Atom                 Charge (a.u.)    Spin (a.u.)
  --------------------------------------------------------
      1 S                    -0.321603       0.103430
      2 C                    -0.096550       0.244598
      3 C                    -0.420492      -0.072004
      4 C                     0.199410       0.242765
      5 C                    -0.158495       0.002335
      6 H                     0.072860      -0.010281
      7 C                    -0.158495       0.002335
      8 S                    -0.321603       0.103430
      9 C                     0.199410       0.242765
     10 C                    -0.096550       0.244598
     11 C                    -0.420492      -0.072004
     12 H                     0.071659       0.004206
     13 H                     0.153212      -0.015049
     14 H                     0.071659       0.004206
     15 H                     0.153212      -0.015049
     16 H                     0.072860      -0.010281
  --------------------------------------------------------
  Sum of atomic charges =    -1.000000
  Sum of spin   charges =     1.000000

 -----------------------------------------------------------------
                    Cartesian Multipole Moments
 -----------------------------------------------------------------
    Charge (ESU x 10^10)
                -4.8032
    Dipole Moment (Debye)
         X       0.0000      Y       0.0000      Z      -0.4383
       Tot       0.4383
    Quadrupole Moments (Debye-Ang)
        XX     -99.2341     XY       0.4459     YY     -87.2369
        XZ      -0.0000     YZ      -0.0000     ZZ     -83.4040
    Octopole Moments (Debye-Ang^2)
       XXX      -0.0000    XXY      -0.0000    XYY       0.0000
       YYY       0.0000    XXZ       8.1098    XYZ      -1.1334
       YYZ       3.9368    XZZ       0.0000    YZZ       0.0000
       ZZZ      -2.3147
    Hexadecapole Moments (Debye-Ang^3)
      XXXX   -2479.7682   XXXY       5.1686   XXYY    -489.5709
      XYYY      -1.9935   YYYY    -143.6883   XXXZ      -0.0000
      XXYZ      -0.0000   XYYZ       0.0000   YYYZ      -0.0000
      XXZZ    -503.8494   XYZZ       1.9410   YYZZ    -157.2155
      XZZZ       0.0000   YZZZ      -0.0000   ZZZZ    -679.6388
 -----------------------------------------------------------------
Archival summary:
1\1\nid01048\OPT\ProcedureUnspecified\BasisUnspecified\286(1-,2)\TueSep622:57:492016TueSep622:57:492016\0\\#,OPT,ProcedureUnspecified,BasisUnspecified,\\-1,2\S\C,1,1.76654\H,2,1.08089,1,120.273\C,2,1.38372,1,110.495,3,179.102,0\H,4,1.08769,2,122.421,1,-179.667,0\C,4,1.41019,2,114.58,1,-0.226055,0\H,6,1.08453,4,123.793,2,-178.462,0\C,6,1.41645,4,113.968,2,0.462517,0\C,8,1.41098,6,128.726,4,-178.161,0\C,9,1.41645,8,128.726,6,-10,0\H,10,1.08453,9,122.23,8,0.782532,0\C,10,1.41019,9,113.968,8,-178.161,0\H,12,1.08769,10,122.997,9,179.9,0\C,12,1.38372,10,114.58,9,0.462517,0\H,14,1.08089,12,129.224,10,178.773,0\S,14,1.76654,12,110.495,10,-0.226055,0\\\@

 Total job time:  88.27s(wall), 98.56s(cpu) 
 Tue Sep  6 22:57:49 2016

        *************************************************************
        *                                                           *
        *  Thank you very much for using Q-Chem.  Have a nice day.  *
        *                                                           *
        *************************************************************


0 sent ACK to 0 
now end server 0 ... 
