srun -N 1 --ntasks-per-node 16 --nodelist nid01047 /global/project/projectdirs/jcesr/qchem/qc44/cnl_qc441/dist/exe/qcprog.cori.exe .pt_charged_dft_-110.0.in.14668.qcin.1 /dev/shm/eg_qchem/qchem14668/
Process 0 of 16 is on nid01047 - thread support 0
Process 1 of 16 is on nid01047 - thread support 0
Process 2 of 16 is on nid01047 - thread support 0
Process 3 of 16 is on nid01047 - thread support 0
Process 4 of 16 is on nid01047 - thread support 0
Process 5 of 16 is on nid01047 - thread support 0
Process 6 of 16 is on nid01047 - thread support 0
Process 15 of 16 is on nid01047 - thread support 0
initial socket setup ...start
initial socket setup ...done 
now start server 0 ... 
nid01047 10.128.4
Q-Chem Developer Version! Running on 10.128.4.*
                  Welcome to Q-Chem
     A Quantum Leap Into The Future Of Chemistry


 Q-Chem 4.4, Q-Chem, Inc., Pleasanton, CA (2016)

 Y. Shao,  Z. Gan,  E. Epifanovsky,  A. T. B. Gilbert,  M. Wormit,  
 J. Kussmann,  A. W. Lange,  A. Behn,  J. Deng,  X. Feng,  D. Ghosh,  
 M. Goldey,  P. R. Horn,  L. D. Jacobson,  I. Kaliman,  F.Rob,  
 R. Z. Khaliullin,  T. Kus,  A. Landau,  J. Liu,  E. I. Proynov,  Y. M. Rhee,  
 R. M. Richard,  M. A. Rohrdanz,  R. P. Steele,  E. J. Sundstrom,  
 H. L. Woodcock III,  P. M. Zimmerman,  D. Zuev,  B. Albrecht,  E. Alguire,  
 B. Austin,  S. A. Baeppler,  G. J. O. Beran,  Y. A. Bernard,  E. Berquist,  
 K. Brandhorst,  K. B. Bravaya,  S. T. Brown,  D. Casanova,  C.-M. Chang,  
 Y. Chen,  S. H. Chien,  K. D. Closser,  M. P. Coons,  D. L. Crittenden,  
 S. Dasgupta,  M. Diedenhofen,  R. A. DiStasio Jr.,  H. Do,  A. D. Dutoi,  
 R. G. Edgar,  P.-T. Fang,  S. Fatehi,  Q. Feng,  L. Fusti-Molnar,  
 A. Ghysels,  A. Golubeva-Zadorozhnaya,  J. Gomes,  A. Gunina,  
 M. W. D. Hanson-Heine,  P. H. P. Harbach,  A. W. Hauser,  E. G. Hohenstein,  
 Z. C. Holden,  K. Hui,  T.-C. Jagau,  H. Ji,  B. Kaduk,  K. Khistyaev,  
 Jaehoon Kim,  Jihan Kim,  R. A. King,  P. Klunzinger,  D. Kosenkov,  
 T. Kowalczyk,  C. M. Krauter,  A. Kunitsa,  K. U. Lao,  A. Laurent,  
 K. V. Lawler,  D. Lefrancois,  S. Lehtola,  S. V. Levchenko,  C. Y. Lin,  
 Y.-S. Lin,  F. Liu,  E. Livshits,  R. C. Lochan,  A. Luenser,  P. Manohar,  
 S. F. Manzer,  S.-P. Mao,  Y. Mao,  N. Mardirossian,  A. V. Marenich,  
 L. A. Martinez-Martinez,  S. A. Maurer,  N. J. Mayhall,  J.-M. Mewes,  
 A. F. Morrison,  K. Nanda,  C. M. Oana,  R. Olivares-Amaya,  D. P. O'Neill,  
 J. A. Parkhill,  T. M. Perrine,  R. Peverati,  P. A. Pieniazek,  F. Plasser,  
 A. Prociuk,  D. R. Rehn,  E. Rosta,  N. J. Russ,  N. Sergueev,  
 S. M. Sharada,  S. Sharma,  D. W. Small,  A. Sodt,  T. Stauch,  T. Stein,  
 D. Stuck,  Y.-C. Su,  A. J. W. Thom,  T. Tsuchimochi,  L. Vogt,  O. Vydrov,  
 T. Wang,  M. A. Watson,  J. Wenzel,  A. White,  C. F. Williams,  
 V. Vanovschi,  S. Yeganeh,  S. R. Yost,  Z.-Q. You,  I. Y. Zhang,  X. Zhang,  
 Y. Zhao,  B. R. Brooks,  G. K. L. Chan,  D. M. Chipman,  C. J. Cramer,  
 W. A. Goddard III,  M. S. Gordon,  W. J. Hehre,  A. Klamt,  
 H. F. Schaefer III,  M. W. Schmidt,  C. D. Sherrill,  D. G. Truhlar,  
 A. Warshel,  X. Xu,  A. Aspuru-Guzik,  R. Baer,  A. T. Bell,  N. A. Besley,  
 J.-D. Chai,  A. Dreuw,  B. D. Dunietz,  T. R. Furlani,  S. R. Gwaltney,  
 C.-P. Hsu,  Y. Jung,  J. Kong,  D. S. Lambrecht,  W. Liang,  C. Ochsenfeld,  
 V. A. Rassolov,  L. V. Slipchenko,  J. E. Subotnik,  T. Van Voorhis,  
 J. M. Herbert,  A. I. Krylov,  P. M. W. Gill,  M. Head-Gordon

 Contributors to earlier versions of Q-Chem not listed above: 
 R. D. Adamson,  J. Baker,  E. F. C. Byrd,  A. K. Chakraborty,  C.-L. Cheng,  
 H. Dachsel,  R. J. Doerksen,  G. Hawkins,  A. Heyden,  S. Hirata,  
 G. Kedziora,  F. J. Keil,  C. Kelley,  P. P. Korambath,  W. Kurlancheek,  
 A. M. Lee,  M. S. Lee,  D. Liotard,  I. Lotan,  P. E. Maslen,  N. Nair,  
 D. Neuhauser,  R. Olson,  B. Peters,  J. Ritchie,  N. E. Schultz,  
 N. Shenvi,  A. C. Simmonett,  K. S. Thanthiriwatte,  Q. Wu,  W. Zhang

 Please cite Q-Chem as follows:
 Y. Shao et al., Mol. Phys. 113, 184-215 (2015)
 DOI: 10.1080/00268976.2014.952696

 Q-Chem 4.4.1 for Intel X86 EM64T Linux

 Parts of Q-Chem use Armadillo 5.200.1 (Boston Tea Smuggler).
 http://arma.sourceforge.net/

 Q-Chem begins on Tue Sep  6 23:03:43 2016  

Host: nid01047
0

     Scratch files written to /dev/shm/eg_qchem/qchem14668.0//
 Parallel job on  16  processors

Checking the input file for inconsistencies... 	...done.

--------------------------------------------------------------
User input:
--------------------------------------------------------------
$comment
<SCF Fix Strategy>{
    "current_method_id": 1, 
    "methods": [
        "increase_iter", 
        "rca_diis", 
        "gwh", 
        "gdm", 
        "rca", 
        "core+rca", 
        "fon"
    ], 
    "version": 2.0
}</SCF Fix Strategy>
$end


$molecule
 -1  2
 S           1.83794975       -1.27576249       -0.14871336
 C           3.23937819       -0.19806434       -0.14823333
 C           2.83626844        1.12431397       -0.14890172
 C           1.43724334        1.31134696       -0.14931220
 C           0.69606563        0.10654716       -0.14908151
 H           0.95807640        2.28459073       -0.14860036
 C          -0.69610330       -0.10652413       -0.14907621
 S          -1.68473914        0.27445275       -1.59549774
 C          -1.54469830       -0.60945348        0.86474606
 C          -3.17122359       -0.24748464       -0.79338772
 C          -2.90428707       -0.68009965        0.49221389
 H          -3.68289607       -1.04445160        1.15838137
 H           4.24016475       -0.60708034       -0.14954918
 H           3.54430111        1.94981573       -0.14910914
 H          -4.11647370       -0.20134688       -1.31611434
 H          -1.16867300       -0.90876416        1.83728037
$end


$rem
         jobtype = opt
        exchange = b3lyp
           basis = 6-31++g**
  max_scf_cycles = 200
      mem_static = 100
       mem_total = 1500
   scf_algorithm = rca_diis
       scf_guess = sad
$end


$opt
CONSTRAINT
tors 4 5 7 9 -110.0
ENDCONSTRAINT
$end

--------------------------------------------------------------
 Atom   8: ( -1.7744723602,  1.0381090032, -0.6706703552)
         ->( -1.7744722799,  1.0381090223, -0.6706703162)
 Atom  10: ( -3.2183925731,  0.1434215737, -0.1807071265)
         ->( -3.2183925545,  0.1434215106, -0.1807073561)
 Atom  11: ( -2.8753795537, -0.9420303144,  0.6037153486)
         ->( -2.8753796344, -0.9420302105,  0.6037153679)
 Atom   9: ( -1.4899211594, -1.0874630459,  0.8308872673)
         ->( -1.4899212493, -1.0874630790,  0.8308872900)
 Atom   7: ( -0.6981663627, -0.0919083010,  0.2121125974)
         ->( -0.6981663758, -0.0919084222,  0.2121125695)
 Atom  16: ( -1.0557665638, -1.8845242912,  1.4250320746)
         ->( -1.0557667025, -1.8845243955,  1.4250320419)
 Atom  14: (  3.6173035746,  1.6254236065,  1.0102689237)
         ->(  3.6173033987,  1.6254238673,  1.0102687766)
 Atom  15: ( -4.1971537702,  0.4728903015, -0.5006234579)
         ->( -4.1971537494,  0.4728905207, -0.5006233657)
 ----------------------------------------------------------------
             Standard Nuclear Orientation (Angstroms)
    I     Atom           X                Y                Z
 ----------------------------------------------------------------
    1      S       1.7744722799    -1.0381090223    -0.6706703162
    2      C       3.2183925545    -0.1434215106    -0.1807073561
    3      C       2.8753796344     0.9420302105     0.6037153679
    4      C       1.4899212493     1.0874630790     0.8308872900
    5      C       0.6981663758     0.0919084222     0.2121125695
    6      H       1.0557667025     1.8845243955     1.4250320419
    7      C      -0.6981663758    -0.0919084222     0.2121125695
    8      S      -1.7744722799     1.0381090223    -0.6706703162
    9      C      -1.4899212493    -1.0874630790     0.8308872900
   10      C      -3.2183925545     0.1434215106    -0.1807073561
   11      C      -2.8753796344    -0.9420302105     0.6037153679
   12      H      -3.6173033987    -1.6254238673     1.0102687766
   13      H       4.1971537494    -0.4728905207    -0.5006233657
   14      H       3.6173033987     1.6254238673     1.0102687766
   15      H      -4.1971537494     0.4728905207    -0.5006233657
   16      H      -1.0557667025    -1.8845243955     1.4250320419
 ----------------------------------------------------------------
 Molecular Point Group                 C2    NOp =  2
 Largest Abelian Subgroup              C2    NOp =  2
 Nuclear Repulsion Energy =   622.8003903965 hartrees
 There are       44 alpha and       43 beta electrons
 Requested basis set is 6-31++G(d,p)
 There are 76 shells and 234 basis functions

 Total QAlloc Memory Limit   1500 MB
 Mega-Array Size        98 MB
 MEM_STATIC part       100 MB
 A cutoff of  1.0D-12 yielded   2526 shell pairs
 There are     24874 function pairs
 
 -------------------------------------------------------
 OpenMP Integral Computing Module                       
 Release: version 1.0, May 2013, Q-Chem Inc. Pittsburgh 
 -------------------------------------------------------
 Integral Job Info:
 Integral job number is                      11
 Integral operator is                         1
 short-range coefficients                     0
 long-range coefficients              100000000
 Omega coefficients                           0
 if combine SR and LR in K                    0
 Integral screening is                        0
 Integral computing path is                   2
 max size of driver memory is            800000
 size of driver memory is                593474
 size of scratch memory is             15166112
 max col of scratch BK array               1296
 max len of scratch array in speh3          155
 max len of scratch index in speh4           18
 max int batch size is                      520
 min int batch size is                       52
 fixed nKL is                                52
 max L of basis functions is                  2
 order of int derivative is                   0
 number of shells is                         76
 number of basis is                         234
 number of cartesian basis is               234
 number of contracted shell pairs          2526
 number of primitive shell pairs           8202
 maxK2 (contraction) of shell pair           36
 max number of K2 of shell pair               1
 max number of CS2 of shell pair            268
 max number of PS2 of shell pair           1524
 mem total for path MDJ                   51992
 -------------------------------------------------------
 Smallest overlap matrix eigenvalue = 9.36E-07
 Linear dependence detected in AO basis
 Number of orthogonalized atomic orbitals = 233
 Maximum deviation from orthogonality = 1.851E-11

 Scale SEOQF with 1.000000e-01/1.000000e-01/1.000000e-01

 Standard Electronic Orientation quadrupole field applied
 Nucleus-field energy     =     0.0000000165 hartrees
 Guess from superposition of atomic densities
 Warning:  Energy on first SCF cycle will be non-variational
 An unrestricted hybrid HF-DFT SCF calculation will be
 performed using Relaxed Constraint Minimization + Pulay DIIS
 Exchange:     0.2000 Hartree-Fock + 0.0800 Slater + 0.7200 B88
 Correlation:  0.1900 VWN1RPA + 0.8100 LYP
 Using SG-1 standard quadrature grid
 SCF converges when DIIS error is below 1.0E-08
 Inaccurate integrated density:
   Number of electrons =    87
   Numerical integral  =    86.000038416543
   Relative error      =    -1.1493811304 %
 Inaccurate integrated density:
   Number of electrons =    87
   Numerical integral  =    86.000038416543
   Relative error      =    -1.1493811304 %
 ---------------------------------------
  Cycle       Energy         DIIS Error
 ---------------------------------------
    1   -1106.9913608354      4.29E-02
 Inaccurate integrated density:
   Number of electrons =    87
   Numerical integral  =    87.010700676243
   Relative error      =     0.0122996279 %
 Inaccurate integrated density:
   Number of electrons =    87
   Numerical integral  =    87.010700676241
   Relative error      =     0.0122996279 %
    2   -1099.3727274069      4.99E-02
    3   -1106.4514259264      4.71E-02
    4   -1110.1889368081      2.78E-02
    5   -1114.4146075386      1.65E-02
 Inaccurate integrated density:
   Number of electrons =    87
   Numerical integral  =    87.016148101017
   Relative error      =     0.0185610357 %
Recomputing EXC -1113.307238 -1115.582828 -1114.414608 
Recomputing EXC -1114.284221 -1114.572094 -1114.414608 
Recomputing EXC -1114.396789 -1114.436565 -1114.414608 
    6   -1114.3967892514      1.65E-02
 Inaccurate integrated density:
   Number of electrons =    87
   Numerical integral  =    87.016147596236
   Relative error      =     0.0185604554 %
Recomputing EXC -1113.216096 -1115.555490 -1114.396789 
Recomputing EXC -1114.184962 -1114.548705 -1114.396789 
Recomputing EXC -1114.295963 -1114.414155 -1114.396789 
    7   -1114.2959632576      1.64E-02
 Inaccurate integrated density:
   Number of electrons =    87
   Numerical integral  =    87.016024509058
   Relative error      =     0.0184189759 %
Recomputing EXC -1112.666614 -1115.183371 -1114.295963 
Recomputing EXC -1114.066358 -1114.384036 -1114.295963 
Recomputing EXC -1114.197532 -1114.303104 -1114.295963 
    8   -1114.1975317582      1.64E-02
 Inaccurate integrated density:
   Number of electrons =    87
   Numerical integral  =    87.015807054971
   Relative error      =     0.0181690287 %
Recomputing EXC -1112.216671 -1114.872290 -1114.197532 
Recomputing EXC -1113.974850 -1114.247995 -1114.197532 
Recomputing EXC -1114.102861 -1114.200385 -1114.197532 
    9   -1114.1028607320      1.64E-02
 Inaccurate integrated density:
   Number of electrons =    87
   Numerical integral  =    87.014938804122
   Relative error      =     0.0171710392 %
Recomputing EXC -1111.308099 -1114.173126 -1114.102861 
Recomputing EXC -1113.993988 -1114.103428 -1114.102861 
Recomputing EXC -1114.015725 -1114.102862 -1114.102861 
   10   -1114.0157246150      1.65E-02
 Inaccurate integrated density:
   Number of electrons =    87
   Numerical integral  =    87.009744498656
   Relative error      =     0.0112005732 %
Recomputing EXC -1111.199886 -1114.064004 -1114.015725 
Recomputing EXC -1113.913468 -1114.015994 -1114.015725 
Recomputing EXC -1113.928613 -1114.015725 -1114.015725 
   11   -1113.9286128375      1.66E-02
Recomputing EXC -1111.088923 -1113.980708 -1113.928613 
Recomputing EXC -1113.825186 -1113.928923 -1113.928613 
Recomputing EXC -1113.841498 -1113.928613 -1113.928613 
   12   -1113.8414980530      1.67E-02
Recomputing EXC -1110.957845 -1113.888982 -1113.841498 
Recomputing EXC -1113.739464 -1113.841752 -1113.841498 
Recomputing EXC -1113.754387 -1113.841498 -1113.841498 
   13   -1113.7543871509      1.68E-02
Recomputing EXC -1110.825300 -1113.797452 -1113.754387 
Recomputing EXC -1113.653697 -1113.754594 -1113.754387 
Recomputing EXC -1113.667279 -1113.754387 -1113.754387 
   14   -1113.6672793506      1.69E-02
Recomputing EXC -1110.692648 -1113.707040 -1113.667279 
Recomputing EXC -1113.567599 -1113.667453 -1113.667279 
Recomputing EXC -1113.580174 -1113.667279 -1113.667279 
   15   -1113.5801735336      1.71E-02
Recomputing EXC -1110.559791 -1113.618036 -1113.580174 
Recomputing EXC -1113.481071 -1113.580329 -1113.580174 
Recomputing EXC -1113.493069 -1113.580174 -1113.580174 
   16   -1113.4930687497      1.72E-02
   17   -6061.3886087048      5.52E+00
Recomputing EXC -5810.687002 -6115.919082 -6061.388609 
Recomputing EXC -6047.899756 -6064.346141 -6061.388609 
Recomputing EXC -6060.654260 -6061.549690 -6061.388609 
   18   -6060.6542595900      5.52E+00
Recomputing EXC -5810.064417 -6115.161146 -6060.654260 
Recomputing EXC -6047.233949 -6063.610555 -6060.654260 
Recomputing EXC -6059.983924 -6060.815817 -6060.654260 
   19   -6059.9839242653      5.51E+00
Recomputing EXC -5793.013734 -6108.696536 -6059.983924 
Recomputing EXC -6047.440221 -6062.292424 -6059.983924 
Recomputing EXC -6059.448784 -6060.093954 -6059.983924 
   20   -6059.4487843054      5.51E+00
Recomputing EXC -5776.967207 -6102.980853 -6059.448784 
Recomputing EXC -6047.815395 -6061.252038 -6059.448784 
Recomputing EXC -6059.027368 -6059.523817 -6059.448784 
   21   -6059.0273684332      5.51E+00
Recomputing EXC -5761.966365 -6097.927684 -6059.027368 
Recomputing EXC -6048.306852 -6060.437003 -6059.027368 
Recomputing EXC -6058.700132 -6059.078639 -6059.027368 
   22   -6058.7001323447      5.51E+00
Recomputing EXC -5748.005180 -6093.489905 -6058.700132 
Recomputing EXC -6048.864859 -6059.804900 -6058.700132 
Recomputing EXC -6058.449555 -6058.735332 -6058.700132 
   23   -6058.4495551255      5.51E+00
Recomputing EXC -5735.141764 -6089.782566 -6058.449555 
Recomputing EXC -6049.408621 -6059.328079 -6058.449555 
Recomputing EXC -6058.258155 -6058.474267 -6058.449555 
   24   -6058.2581549396      5.51E+00
Recomputing EXC -5723.387220 -6087.052712 -6058.258155 
Recomputing EXC -6049.823160 -6058.985086 -6058.258155 
Recomputing EXC -6058.107554 -6058.276563 -6058.258155 
   25   -6058.1075535762      5.51E+00
Recomputing EXC -5712.520684 -6085.436578 -6058.107554 
Recomputing EXC -6050.021252 -6058.748005 -6058.107554 
Recomputing EXC -6057.980594 -6058.122603 -6058.107554 
   26   -6057.9805944074      5.51E+00
Recomputing EXC -5702.094237 -6084.619479 -6057.980594 
Recomputing EXC -6050.045767 -6058.574840 -6057.980594 
Recomputing EXC -6057.866302 -6057.993878 -6057.980594 
   27   -6057.8663021432      5.51E+00
Recomputing EXC -5691.564087 -6083.779745 -6057.866302 
Recomputing EXC -6050.098018 -6058.415679 -6057.866302 
Recomputing EXC -6057.764467 -6057.877966 -6057.866302 
   28   -6057.7644671655      5.51E+00
Recomputing EXC -5680.102923 -6081.955896 -6057.764467 
Recomputing EXC -6050.445118 -6058.233234 -6057.764467 
Recomputing EXC -6057.685583 -6057.773566 -6057.764467 
   29   -6057.6855833433      5.51E+00
Recomputing EXC -5665.595287 -6077.985026 -6057.685583 
Recomputing EXC -6051.448543 -6058.009203 -6057.685583 
Recomputing EXC -6057.649169 -6057.690762 -6057.685583 
   30   -6057.6491688914      5.51E+00
Recomputing EXC -5644.939713 -6069.562062 -6057.649169 
Recomputing EXC -6053.898740 -6057.758747 -6057.649169 
   31   -6057.6780451154      5.51E+00
Recomputing EXC -5695.543637 -6085.597941 -6057.678045 
Recomputing EXC -6049.310678 -6058.317342 -6057.678045 
Recomputing EXC -6057.487576 -6057.692595 -6057.678045 
   32   -6057.4875757296      5.51E+00
Recomputing EXC -5695.857799 -6085.516675 -6057.487576 
Recomputing EXC -6049.155163 -6058.132411 -6057.487576 
Recomputing EXC -6057.358603 -6057.502419 -6057.487576 
   33   -6057.3586032389      5.51E+00
Recomputing EXC -5730.855914 -6099.358049 -6057.358603 
Recomputing EXC -6045.648528 -6058.854742 -6057.358603 
Recomputing EXC -6057.004599 -6057.411730 -6057.358603 
   34   -6057.0045992427      5.51E+00
Recomputing EXC -5746.329487 -6106.512611 -6057.004599 
Recomputing EXC -6043.701275 -6059.104729 -6057.004599 
Recomputing EXC -6056.503978 -6057.093265 -6057.004599 
   35   -6056.5039784415      5.51E+00
Recomputing EXC -5753.901638 -6110.566901 -6056.503978 
Recomputing EXC -6042.294985 -6059.013748 -6056.503978 
Recomputing EXC -6055.908537 -6056.619807 -6056.503978 
   36   -6055.9085372615      5.51E+00
Recomputing EXC -5757.780151 -6112.999716 -6055.908537 
Recomputing EXC -6041.113981 -6058.704717 -6055.908537 
Recomputing EXC -6055.248486 -6056.044556 -6055.908537 
   37   -6055.2484858907      5.51E+00
Recomputing EXC -5759.632573 -6114.450569 -6055.248486 
Recomputing EXC -6040.048013 -6058.248446 -6055.248486 
Recomputing EXC -6054.543019 -6055.399346 -6055.248486 
   38   -6054.5430194218      5.51E+00
Recomputing EXC -5760.213901 -6115.222991 -6054.543019 
Recomputing EXC -6039.055096 -6057.685690 -6054.543019 
Recomputing EXC -6053.805792 -6054.704428 -6054.543019 
   39   -6053.8057916902      5.51E+00
Recomputing EXC -5759.917435 -6115.476629 -6053.805792 
Recomputing EXC -6038.119251 -6057.042164 -6053.805792 
Recomputing EXC -6053.047478 -6053.974119 -6053.805792 
   40   -6053.0474778785      5.51E+00
Recomputing EXC -5758.984613 -6115.310797 -6053.047478 
Recomputing EXC -6037.234430 -6056.336616 -6053.047478 
Recomputing EXC -6052.276863 -6053.219603 -6053.047478 
   41   -6052.2768633228      5.51E+00
Recomputing EXC -5757.593845 -6114.806552 -6052.276863 
Recomputing EXC -6036.396714 -6055.585123 -6052.276863 
Recomputing EXC -6051.501131 -6052.450193 -6052.276863 
   42   -6051.5011313084      5.51E+00
Recomputing EXC -5755.897606 -6114.049041 -6051.501131 
Recomputing EXC -6035.599797 -6054.803121 -6051.501131 
Recomputing EXC -6050.725715 -6051.673711 -6051.501131 
   43   -6050.7257153748      5.51E+00
Recomputing EXC -5754.030849 -6113.135667 -6050.725715 
Recomputing EXC -6034.832696 -6054.005717 -6050.725715 
Recomputing EXC -6049.954008 -6050.896349 -6050.725715 
   44   -6049.9540083897      5.51E+00
Recomputing EXC -5752.101486 -6112.170813 -6049.954008 
Recomputing EXC -6034.079926 -6053.206571 -6049.954008 
Recomputing EXC -6049.187211 -6050.122295 -6049.954008 
   45   -6049.1872114760      5.51E+00
Recomputing EXC -5750.174292 -6111.250109 -6049.187211 
Recomputing EXC -6033.324144 -6052.416053 -6049.187211 
Recomputing EXC -6048.424534 -6049.353433 -6049.187211 
   46   -6048.4245335223      5.51E+00
Recomputing EXC -5748.261705 -6110.442636 -6048.424534 
Recomputing EXC -6032.549998 -6051.639749 -6048.424534 
Recomputing EXC -6047.663765 -6048.589433 -6048.424534 
   47   -6047.6637651925      5.51E+00
Recomputing EXC -5746.330037 -6109.781421 -6047.663765 
Recomputing EXC -6031.747078 -6050.878274 -6047.663765 
Recomputing EXC -6046.902038 -6047.828268 -6047.663765 
   48   -6046.9020382850      5.51E+00
Recomputing EXC -5744.318412 -6109.266853 -6046.902038 
Recomputing EXC -6030.910578 -6050.128514 -6046.902038 
Recomputing EXC -6046.136499 -6047.067030 -6046.902038 
   49   -6046.1364991693      5.51E+00
Recomputing EXC -5742.160031 -6108.879205 -6046.136499 
Recomputing EXC -6030.039880 -6049.385553 -6046.136499 
Recomputing EXC -6045.364716 -6046.302697 -6046.136499 
   50   -6045.3647155540      5.51E+00 Done RCA. Switching to DIIS
   51   -3833.4027172658      2.23E+01
 Inaccurate integrated density:
   Number of electrons =    87
   Numerical integral  =    86.989945819416
   Relative error      =    -0.0115565294 %
   52  -12185.2785142144      2.18E+01
   53  -13818.6892875037      3.05E+00
   54    1135.4293957834      2.63E+00
   55     940.8584728999      2.47E+00
   56    -315.8243222120      2.08E+00
   57    -642.3366565335      2.99E+00
   58    -608.7341513635      3.60E+00
 Inaccurate integrated density:
   Number of electrons =    87
   Numerical integral  =    87.011297595302
   Relative error      =     0.0129857417 %
   59   -2679.0277961478      1.40E+01
 Inaccurate integrated density:
   Number of electrons =    87
   Numerical integral  =    87.009103057164
   Relative error      =     0.0104632841 %
   60     -96.2774552135      4.31E+00
 Inaccurate integrated density:
   Number of electrons =    87
   Numerical integral  =    87.009096935569
   Relative error      =     0.0104562478 %
   61    -105.8039478881      3.59E+00
 Inaccurate integrated density:
   Number of electrons =    87
   Numerical integral  =    87.009143364270
   Relative error      =     0.0105096141 %
   62    -215.1056515080      3.35E+00
 Inaccurate integrated density:
   Number of electrons =    87
   Numerical integral  =    87.015066185202
   Relative error      =     0.0173174543 %
   63    1340.1384055568      1.41E+01
   64   -1636.3389081409      1.35E+00
   65    -506.6048243936      5.80E-01
 Inaccurate integrated density:
   Number of electrons =    87
   Numerical integral  =    86.984842376539
   Relative error      =    -0.0174225557 %
   66   -2139.3339476143      4.48E+00
   67   -1185.9408852882      3.86E-01
   68   -1051.5469031494      2.33E-01
 Inaccurate integrated density:
   Number of electrons =    87
   Numerical integral  =    87.014595888403
   Relative error      =     0.0167768832 %
   69   -1135.4240561011      2.08E-01
 Inaccurate integrated density:
   Number of electrons =    87
   Numerical integral  =    87.014431966830
   Relative error      =     0.0165884676 %
   70   -1047.5230439933      6.64E-02
 Inaccurate integrated density:
   Number of electrons =    87
   Numerical integral  =    87.014013348295
   Relative error      =     0.0161072969 %
   71   -1161.6266306425      1.97E+00
 Inaccurate integrated density:
   Number of electrons =    87
   Numerical integral  =    87.018080532338
   Relative error      =     0.0207822211 %
   72    -972.5670171022      6.78E-01
 Inaccurate integrated density:
   Number of electrons =    87
   Numerical integral  =    87.012974884455
   Relative error      =     0.0149136603 %
   73   -1100.2471266709      3.20E-01
   74   -1079.9167719733      1.74E-01
 Inaccurate integrated density:
   Number of electrons =    87
   Numerical integral  =    87.015962720234
   Relative error      =     0.0183479543 %
   75    -854.0716791265      6.39E-01
   76   -1104.2838307085      1.17E-01
   77   -1101.1790859769      2.10E-02
 Inaccurate integrated density:
   Number of electrons =    87
   Numerical integral  =    86.981994027034
   Relative error      =    -0.0206965207 %
   78   -1106.6145029149      1.58E-02
 Inaccurate integrated density:
   Number of electrons =    87
   Numerical integral  =    86.988678400596
   Relative error      =    -0.0130133326 %
   79   -1106.7997428986      8.46E-03
 Inaccurate integrated density:
   Number of electrons =    87
   Numerical integral  =    86.988438835505
   Relative error      =    -0.0132886948 %
   80   -1105.1011241306      6.52E-03
 Inaccurate integrated density:
   Number of electrons =    87
   Numerical integral  =    86.988554991073
   Relative error      =    -0.0131551827 %
   81   -1106.6280180893      2.59E-03
 Inaccurate integrated density:
   Number of electrons =    87
   Numerical integral  =    86.989886029522
   Relative error      =    -0.0116252534 %
   82   -1105.1443373201      2.83E-03
 Inaccurate integrated density:
   Number of electrons =    87
   Numerical integral  =    86.990311104932
   Relative error      =    -0.0111366610 %
   83   -1104.8026111360      2.40E-03
   84   -1104.2639134065      1.84E-03
   85   -1104.6364375795      4.69E-03
   86   -1104.5011718054      2.61E-03
 Inaccurate integrated density:
   Number of electrons =    87
   Numerical integral  =    86.989230278267
   Relative error      =    -0.0123789905 %
   87   -1105.0236683990      5.87E-03
 Inaccurate integrated density:
   Number of electrons =    87
   Numerical integral  =    86.988907582953
   Relative error      =    -0.0127499047 %
   88   -1104.6209427097      3.82E-03
 Inaccurate integrated density:
   Number of electrons =    87
   Numerical integral  =    86.989873154123
   Relative error      =    -0.0116400527 %
   89   -1104.3080201901      1.64E-03
 Inaccurate integrated density:
   Number of electrons =    87
   Numerical integral  =    86.990929864593
   Relative error      =    -0.0104254430 %
   90   -1109.6327912527      3.84E-02
 Inaccurate integrated density:
   Number of electrons =    87
   Numerical integral  =    86.990866328561
   Relative error      =    -0.0104984729 %
   91   -1104.5872359343      3.98E-03
 Inaccurate integrated density:
   Number of electrons =    87
   Numerical integral  =    86.991080833928
   Relative error      =    -0.0102519150 %
   92   -1104.6233362102      4.32E-03
 Inaccurate integrated density:
   Number of electrons =    87
   Numerical integral  =    86.991047989385
   Relative error      =    -0.0102896674 %
   93   -1104.5646267085      3.59E-03
 Inaccurate integrated density:
   Number of electrons =    87
   Numerical integral  =    86.991197724333
   Relative error      =    -0.0101175582 %
   94   -1105.6206640675      1.22E-02
 Inaccurate integrated density:
   Number of electrons =    87
   Numerical integral  =    86.989836880988
   Relative error      =    -0.0116817460 %
   95   -1104.9198791339      6.95E-03
 Inaccurate integrated density:
   Number of electrons =    87
   Numerical integral  =    86.990068863689
   Relative error      =    -0.0114150992 %
   96   -1104.4110545670      3.30E-03
 Inaccurate integrated density:
   Number of electrons =    87
   Numerical integral  =    86.989713930110
   Relative error      =    -0.0118230688 %
   97   -1105.9159556949      4.94E-03
 Inaccurate integrated density:
   Number of electrons =    87
   Numerical integral  =    86.989704034094
   Relative error      =    -0.0118344436 %
   98   -1105.3225997701      2.66E-03
 Inaccurate integrated density:
   Number of electrons =    87
   Numerical integral  =    86.988171921750
   Relative error      =    -0.0135954922 %
   99   -1105.2648644937      5.46E-03
 Inaccurate integrated density:
   Number of electrons =    87
   Numerical integral  =    86.989685160226
   Relative error      =    -0.0118561377 %
  100   -1104.4693874800      1.69E-03
 Inaccurate integrated density:
   Number of electrons =    87
   Numerical integral  =    86.990469549441
   Relative error      =    -0.0109545409 %
  101   -1104.3571572393      1.20E-03
 Inaccurate integrated density:
   Number of electrons =    87
   Numerical integral  =    86.990998075936
   Relative error      =    -0.0103470392 %
  102   -1104.6197429751      9.71E-04
 Inaccurate integrated density:
   Number of electrons =    87
   Numerical integral  =    86.987773980648
   Relative error      =    -0.0140528958 %
  103   -1123.0764543968      5.15E-02
 Inaccurate integrated density:
   Number of electrons =    87
   Numerical integral  =    86.987774589294
   Relative error      =    -0.0140521962 %
  104   -1120.6144267776      4.47E-02
 Inaccurate integrated density:
   Number of electrons =    87
   Numerical integral  =    86.987856419179
   Relative error      =    -0.0139581389 %
  105   -1109.4029177652      1.32E-02
 Inaccurate integrated density:
   Number of electrons =    87
   Numerical integral  =    86.988060548280
   Relative error      =    -0.0137235077 %
  106   -1109.0131181503      1.18E-02
 Inaccurate integrated density:
   Number of electrons =    87
   Numerical integral  =    86.987959025946
   Relative error      =    -0.0138402001 %
  107   -1106.6740880389      5.58E-03
 Inaccurate integrated density:
   Number of electrons =    87
   Numerical integral  =    86.987995588050
   Relative error      =    -0.0137981747 %
  108   -1105.4696069322      2.58E-03
 Inaccurate integrated density:
   Number of electrons =    87
   Numerical integral  =    86.988060538109
   Relative error      =    -0.0137235194 %
  109   -1106.0051619154      3.96E-03
 Inaccurate integrated density:
   Number of electrons =    87
   Numerical integral  =    86.988198526322
   Relative error      =    -0.0135649123 %
  110   -1104.6683557794      1.63E-03
 Inaccurate integrated density:
   Number of electrons =    87
   Numerical integral  =    86.988322836501
   Relative error      =    -0.0134220270 %
  111   -1104.3743339107      1.87E-03
 Inaccurate integrated density:
   Number of electrons =    87
   Numerical integral  =    86.988399673345
   Relative error      =    -0.0133337088 %
  112   -1106.8696966014      5.71E-03
 Inaccurate integrated density:
   Number of electrons =    87
   Numerical integral  =    86.988606910211
   Relative error      =    -0.0130955055 %
  113   -1104.7430807715      1.23E-03
 Inaccurate integrated density:
   Number of electrons =    87
   Numerical integral  =    86.988876830220
   Relative error      =    -0.0127852526 %
  114   -1103.8349737517      2.86E-03
 Inaccurate integrated density:
   Number of electrons =    87
   Numerical integral  =    86.988870984210
   Relative error      =    -0.0127919722 %
  115   -1103.8828988457      2.74E-03
  116   -1104.7091494150      3.27E-03
  117   -1104.8119535494      7.69E-04
  118   -1104.8212939735      5.84E-04
  119   -1104.8240511744      2.08E-04
  120   -1104.8244441378      1.15E-04
  121   -1104.8245712287      6.35E-05
  122   -1104.8246354162      1.13E-05
  123   -1104.8246622670      1.07E-05
  124   -1104.8246723664      6.41E-06
  125   -1104.8246807683      3.85E-06
  126   -1104.8246824730      2.63E-06
  127   -1104.8246841777      1.51E-06
  128   -1104.8246848230      4.48E-07
  129   -1104.8246847929      1.41E-07
  130   -1104.8246847928      4.76E-08
  131   -1104.8246848228      1.56E-08
  132   -1104.8246848386      4.61E-09 Convergence criterion met
 ---------------------------------------
 <S^2> = 0.7583
 SCF time:  CPU 104.96 s  wall 94.37 s
 SCF   energy in the final basis set = -1104.8246848386
 Total energy in the final basis set = -1104.8246848386
 
 --------------------------------------------------------------
             Orbital Energies (a.u.) and Symmetries
 --------------------------------------------------------------
 
 Alpha MOs, Unrestricted
 -- Occupied --                  
-88.752 -88.752 -10.062 -10.062 -10.060 -10.060 -10.049 -10.049
  1 B     1 A     2 A     2 B     3 B     3 A     4 A     4 B                  
-10.040 -10.040  -7.810  -7.810  -5.774  -5.774  -5.771  -5.771
  5 B     5 A     6 B     6 A     7 B     7 A     8 B     8 A                  
 -5.768  -5.768  -0.724  -0.704  -0.607  -0.579  -0.575  -0.538
  9 B     9 A    10 A    10 B    11 A    11 B    12 A    12 B                  
 -0.448  -0.411  -0.400  -0.373  -0.363  -0.317  -0.259  -0.259
 13 A    13 B    14 A    14 B    15 A    15 B    16 B    16 A                  
 -0.250  -0.245  -0.237  -0.211  -0.211  -0.191  -0.186  -0.109
 17 A    17 B    18 A    19 A    18 B    19 B    20 A    21 A                  
 -0.104  -0.098  -0.070   0.063
 20 B    22 A    21 B    23 A                                                  
 -- Virtual --                   
  0.093   0.094   0.109   0.109   0.114   0.123   0.132   0.147
 24 A    22 B    23 B    25 A    24 B    26 A    25 B    26 B                  
  0.151   0.157   0.159   0.172   0.178   0.178   0.183   0.186
 27 A    27 B    28 A    29 A    28 B    30 A    29 B    31 A                  
  0.192   0.198   0.211   0.212   0.213   0.221   0.224   0.226
 30 B    32 A    33 A    31 B    34 A    35 A    32 B    33 B                  
  0.231   0.238   0.240   0.241   0.243   0.250   0.257   0.263
 34 B    35 B    36 A    36 B    37 A    38 A    37 B    39 A                  
  0.267   0.272   0.284   0.286   0.290   0.293   0.303   0.306
 38 B    40 A    39 B    41 A    40 B    42 A    41 B    42 B                  
  0.311   0.323   0.336   0.337   0.341   0.349   0.356   0.358
 43 A    43 B    44 A    44 B    45 A    46 A    45 B    47 A                  
  0.381   0.385   0.391   0.405   0.410   0.417   0.434   0.450
 46 B    47 B    48 A    49 A    48 B    50 A    49 B    50 B                  
  0.458   0.472   0.481   0.489   0.508   0.537   0.560   0.606
 51 A    52 A    51 B    53 A    52 B    54 A    53 B    55 A                  
  0.608   0.645   0.662   0.680   0.681   0.717   0.720   0.742
 54 B    56 A    57 A    55 B    56 B    57 B    58 A    59 A                  
  0.766   0.777   0.795   0.815   0.824   0.831   0.837   0.859
 58 B    60 A    59 B    60 B    61 A    62 A    63 A    61 B                  
  0.869   0.871   0.894   0.898   0.913   0.931   0.937   0.958
 62 B    64 A    63 B    64 B    65 A    65 B    66 A    66 B                  
  0.965   0.981   0.994   1.030   1.053   1.088   1.089   1.101
 67 A    68 A    67 B    69 A    68 B    69 B    70 A    70 B                  
  1.106   1.108   1.118   1.122   1.126   1.134   1.160   1.173
 71 A    71 B    72 A    72 B    73 A    73 B    74 B    74 A                  
  1.177   1.223   1.237   1.239   1.257   1.258   1.275   1.317
 75 A    76 A    77 A    75 B    76 B    78 A    77 B    78 B                  
  1.324   1.358   1.400   1.409   1.469   1.502   1.505   1.511
 79 A    80 A    79 B    81 A    80 B    82 A    81 B    83 A                  
  1.523   1.538   1.620   1.629   1.646   1.686   1.717   1.839
 82 B    84 A    85 A    83 B    84 B    86 A    85 B    87 A                  
  1.842   1.923   1.982   1.984   2.039   2.041   2.066   2.075
 86 B    88 A    87 B    89 A    88 B    90 A    89 B    91 A                  
  2.124   2.150   2.151   2.165   2.204   2.244   2.258   2.282
 92 A    93 A    90 B    91 B    92 B    94 A    95 A    93 B                  
  2.308   2.319   2.348   2.411   2.424   2.499   2.515   2.516
 94 B    96 A    95 B    97 A    96 B    98 A    99 A    97 B                  
  2.565   2.584   2.614   2.625   2.644   2.663   2.663   2.674
 98 B   100 A   101 A    99 B   100 B   102 A   101 B   103 A                  
  2.731   2.741   2.748   2.803   2.848   2.852   2.912   2.997
102 B   104 A   103 B   105 A   106 A   104 B   105 B   106 B                  
  2.999   3.033   3.107   3.311   3.330   3.414   3.418   3.555
107 A   108 A   107 B   108 B   109 A   109 B   110 A   111 A                  
  3.575   3.866   3.883   4.128   4.128   4.446   4.450   4.455
110 B   112 A   111 B   112 B   113 A   114 A   113 B   115 A                  
  4.478   4.596   4.671   4.812   4.865
114 B   116 A   115 B   117 A   116 B                                          
 
 Beta MOs, Unrestricted
 -- Occupied --                  
-88.751 -88.751 -10.060 -10.059 -10.057 -10.057 -10.050 -10.050
  1 B     1 A     2 A     2 B     3 B     3 A     4 A     4 B                  
-10.038 -10.038  -7.810  -7.810  -5.774  -5.774  -5.771  -5.771
  5 B     5 A     6 B     6 A     7 B     7 A     8 B     8 A                  
 -5.766  -5.766  -0.720  -0.701  -0.601  -0.576  -0.572  -0.534
  9 B     9 A    10 A    10 B    11 A    11 B    12 A    12 B                  
 -0.442  -0.408  -0.397  -0.370  -0.361  -0.315  -0.257  -0.256
 13 A    13 B    14 A    14 B    15 A    15 B    16 B    16 A                  
 -0.245  -0.243  -0.232  -0.206  -0.203  -0.188  -0.183  -0.102
 17 A    17 B    18 A    19 A    18 B    19 B    20 A    21 A                  
 -0.096  -0.082  -0.056
 20 B    22 A    21 B                                                          
 -- Virtual --                   
  0.091   0.094   0.108   0.109   0.114   0.123   0.125   0.133
 23 A    22 B    23 B    24 A    25 A    26 A    24 B    25 B                  
  0.149   0.151   0.158   0.160   0.174   0.178   0.180   0.185
 26 B    27 A    27 B    28 A    29 A    28 B    30 A    29 B                  
  0.187   0.194   0.198   0.210   0.212   0.214   0.221   0.224
 31 A    30 B    32 A    33 A    31 B    34 A    35 A    32 B                  
  0.227   0.233   0.239   0.241   0.241   0.243   0.251   0.258
 33 B    34 B    35 B    36 A    36 B    37 A    38 A    37 B                  
  0.265   0.271   0.273   0.284   0.286   0.291   0.293   0.303
 39 A    38 B    40 A    39 B    41 A    40 B    42 A    41 B                  
  0.310   0.313   0.323   0.336   0.338   0.342   0.349   0.356
 42 B    43 A    43 B    44 A    44 B    45 A    46 A    45 B                  
  0.358   0.381   0.386   0.392   0.405   0.411   0.418   0.438
 47 A    46 B    47 B    48 A    49 A    48 B    50 A    49 B                  
  0.452   0.459   0.474   0.482   0.490   0.510   0.538   0.563
 50 B    51 A    52 A    51 B    53 A    52 B    54 A    53 B                  
  0.608   0.610   0.648   0.664   0.682   0.685   0.718   0.722
 55 A    54 B    56 A    57 A    55 B    56 B    57 B    58 A                  
  0.745   0.768   0.780   0.801   0.822   0.830   0.836   0.842
 59 A    58 B    60 A    59 B    60 B    61 A    62 A    63 A                  
  0.864   0.870   0.872   0.897   0.899   0.916   0.936   0.941
 61 B    62 B    64 A    63 B    64 B    65 A    65 B    66 A                  
  0.960   0.968   0.987   1.000   1.034   1.055   1.090   1.092
 66 B    67 A    68 A    67 B    69 A    68 B    69 B    70 A                  
  1.102   1.107   1.112   1.121   1.124   1.128   1.135   1.163
 70 B    71 A    71 B    72 A    72 B    73 A    73 B    74 B                  
  1.175   1.181   1.224   1.240   1.241   1.260   1.260   1.278
 74 A    75 A    76 A    77 A    75 B    76 B    78 A    77 B                  
  1.319   1.327   1.360   1.403   1.412   1.472   1.508   1.511
 78 B    79 A    80 A    79 B    81 A    80 B    82 A    81 B                  
  1.513   1.525   1.541   1.623   1.631   1.648   1.691   1.723
 83 A    82 B    84 A    85 A    83 B    84 B    86 A    85 B                  
  1.848   1.852   1.931   1.985   1.988   2.040   2.043   2.068
 87 A    86 B    88 A    87 B    89 A    88 B    90 A    89 B                  
  2.078   2.127   2.153   2.155   2.169   2.206   2.248   2.264
 91 A    92 A    93 A    90 B    91 B    92 B    94 A    95 A                  
  2.289   2.315   2.327   2.353   2.416   2.429   2.503   2.517
 93 B    94 B    96 A    95 B    97 A    96 B    98 A    99 A                  
  2.517   2.567   2.589   2.615   2.628   2.647   2.664   2.666
 97 B    98 B   100 A   101 A    99 B   100 B   102 A   101 B                  
  2.677   2.734   2.743   2.752   2.806   2.851   2.854   2.916
103 A   102 B   104 A   103 B   105 A   106 A   104 B   105 B                  
  2.999   3.001   3.035   3.109   3.312   3.331   3.414   3.418
106 B   107 A   108 A   107 B   108 B   109 A   109 B   110 A                  
  3.556   3.576   3.867   3.884   4.129   4.130   4.451   4.454
111 A   110 B   112 A   111 B   112 B   113 A   114 A   113 B                  
  4.457   4.480   4.601   4.677   4.814   4.868
115 A   114 B   116 A   115 B   117 A   116 B                                  
 --------------------------------------------------------------
 
          Ground-State Mulliken Net Atomic Charges

     Atom                 Charge (a.u.)    Spin (a.u.)
  --------------------------------------------------------
      1 S                    -0.153420       0.140252
      2 C                    -0.098767       0.200522
      3 C                    -0.279224      -0.080348
      4 C                     0.073949       0.179602
      5 C                    -0.286186      -0.001657
      6 H                     0.061415       0.029832
      7 C                    -0.286186      -0.001657
      8 S                    -0.153420       0.140252
      9 C                     0.073949       0.179602
     10 C                    -0.098767       0.200522
     11 C                    -0.279224      -0.080348
     12 H                     0.062123       0.017602
     13 H                     0.120110       0.014193
     14 H                     0.062123       0.017602
     15 H                     0.120110       0.014193
     16 H                     0.061415       0.029832
  --------------------------------------------------------
  Sum of atomic charges =    -1.000000
  Sum of spin   charges =     1.000000

 -----------------------------------------------------------------
                    Cartesian Multipole Moments
 -----------------------------------------------------------------
    Charge (ESU x 10^10)
                -4.8032
    Dipole Moment (Debye)
         X       0.0000      Y      -0.0000      Z       0.0740
       Tot       0.0740
    Quadrupole Moments (Debye-Ang)
        XX    -101.2721     XY       1.5080     YY     -85.4131
        XZ       0.0000     YZ       0.0000     ZZ     -87.6054
    Octopole Moments (Debye-Ang^2)
       XXX       0.0000    XXY       0.0000    XYY       0.0000
       YYY      -0.0000    XXZ      -6.1617    XYZ       4.1255
       YYZ       2.8616    XZZ       0.0000    YZZ       0.0000
       ZZZ     -11.7955
    Hexadecapole Moments (Debye-Ang^3)
      XXXX   -2545.7740   XXXY     -24.7407   XXYY    -522.9804
      XYYY      10.5042   YYYY    -554.7456   XXXZ      -0.0000
      XXYZ       0.0000   XYYZ       0.0000   YYYZ       0.0000
      XXZZ    -516.9948   XYZZ      -7.2206   YYZZ    -142.2924
      XZZZ       0.0000   YZZZ       0.0000   ZZZZ    -377.2499
 -----------------------------------------------------------------
 Calculating analytic gradient of the SCF energy
 Gradient of SCF Energy
            1           2           3           4           5           6
    1  -0.0071376   0.0030541  -0.0014567   0.0033045  -0.0170392   0.0009595
    2   0.0020801   0.0042620  -0.0054291   0.0035657  -0.0066039   0.0010818
    3  -0.0006650   0.0021645   0.0025253   0.0102231  -0.0095574  -0.0012122
            7           8           9          10          11          12
    1   0.0170392   0.0071376  -0.0033045  -0.0030541   0.0014567   0.0002381
    2   0.0066039  -0.0020801  -0.0035657  -0.0042620   0.0054291  -0.0001639
    3  -0.0095574  -0.0006650   0.0102231   0.0021645   0.0025253  -0.0005601
           13          14          15          16
    1  -0.0005995  -0.0002381   0.0005995  -0.0009595
    2   0.0012332   0.0001639  -0.0012332  -0.0010818
    3  -0.0029182  -0.0005601  -0.0029182  -0.0012122
 Max gradient component =       1.704E-02
 RMS gradient           =       5.376E-03
 Gradient time:  CPU 1.84 s  wall 1.86 s
 Geometry Optimization Parameters
   NAtoms,    NIC,     NZ,  NCons,   NDum,   NFix, NCnnct, MaxDiis
       16     111       0       1       0       0       0       0


** CONSTRAINED OPTIMIZATION IN DELOCALIZED INTERNAL COORDINATES **
   Searching for a Minimum

   Optimization Cycle:   1

                       Coordinates (Angstroms)
     ATOM                X               Y               Z
      1  S         1.7744722799   -1.0381090223   -0.6706703162
      2  C         3.2183925545   -0.1434215106   -0.1807073561
      3  C         2.8753796344    0.9420302105    0.6037153679
      4  C         1.4899212493    1.0874630790    0.8308872900
      5  C         0.6981663758    0.0919084222    0.2121125695
      6  H         1.0557667025    1.8845243955    1.4250320419
      7  C        -0.6981663758   -0.0919084222    0.2121125695
      8  S        -1.7744722799    1.0381090223   -0.6706703162
      9  C        -1.4899212493   -1.0874630790    0.8308872900
     10  C        -3.2183925545    0.1434215106   -0.1807073561
     11  C        -2.8753796344   -0.9420302105    0.6037153679
     12  H        -3.6173033987   -1.6254238673    1.0102687766
     13  H         4.1971537494   -0.4728905207   -0.5006233657
     14  H         3.6173033987    1.6254238673    1.0102687766
     15  H        -4.1971537494    0.4728905207   -0.5006233657
     16  H        -1.0557667025   -1.8845243955    1.4250320419
   Point Group: c2    Number of degrees of freedom:    22


   Energy is  -1104.824684839

              Constraints and their Current Values
                                        Value     Constraint
   Dihedral:        4   5   7   9     -110.000     -110.000

 Attempting to Generate Delocalized Internal Coordinates

 21 Hessian modes will be used to form the next step
  Hessian Eigenvalues:
     0.045000    0.045000    0.045000    0.045000    0.045000    0.045000
     0.160000    0.160000    0.160000    0.221184    0.237470    0.250000
     0.264210    0.283931    0.350974    0.354198    0.358566    0.414224
     0.425056    0.442595    0.471396

 Minimum Search - Taking Simple RFO Step
 Searching for Lamda that Minimizes Along All modes
 Value Taken    Lamda =  -0.00452608
 Step Taken.  Stepsize is  0.251363

                             Maximum     Tolerance    Cnvgd?
         Gradient           0.012976      0.000300      NO
         Displacement       0.163480      0.001200      NO
         Energy change     *********      0.000001      NO


 New Cartesian Coordinates Obtained by Inverse Iteration

 Displacement from previous Coordinates is:  0.627316
 ----------------------------------------------------------------
             Standard Nuclear Orientation (Angstroms)
    I     Atom           X                Y                Z
 ----------------------------------------------------------------
    1      S       1.8262987820    -1.0640636336    -0.6531837180
    2      C       3.2477209583    -0.1679165120    -0.1222128201
    3      C       2.8751743277     0.9598214540     0.5890516002
    4      C       1.4802460228     1.1014720154     0.7653158220
    5      C       0.7081186261     0.1017999367     0.1493943122
    6      H       1.0206147537     1.9012388648     1.3369214439
    7      C      -0.7081186261    -0.1017999367     0.1493943122
    8      S      -1.8262987820     1.0640636336    -0.6531837180
    9      C      -1.4802460228    -1.1014720154     0.7653158220
   10      C      -3.2477209583     0.1679165120    -0.1222128201
   11      C      -2.8751743277    -0.9598214540     0.5890516002
   12      H      -3.6011925601    -1.6482082325     1.0164386187
   13      H       4.2407532102    -0.5288288416    -0.3517102510
   14      H       3.6011925601     1.6482082325     1.0164386187
   15      H      -4.2407532102     0.5288288416    -0.3517102510
   16      H      -1.0206147537    -1.9012388648     1.3369214439
 ----------------------------------------------------------------
 Molecular Point Group                 C2    NOp =  2
 Largest Abelian Subgroup              C2    NOp =  2
 Nuclear Repulsion Energy =   620.4780775478 hartrees
 There are       44 alpha and       43 beta electrons
 Applying Cartesian multipole field
    Component          Value
    ---------          -----
     (2,0,0)        1.00000E-11
     (0,2,0)        2.00000E-11
     (0,0,2)       -3.00000E-11
 Nucleus-field energy     =     0.0000000174 hartrees
 Requested basis set is 6-31++G(d,p)
 There are 76 shells and 234 basis functions
 A cutoff of  1.0D-12 yielded   2522 shell pairs
 There are     24858 function pairs
 Smallest overlap matrix eigenvalue = 1.00E-06
 No. of orbitals has changed due to linear dependencies.  Generating new SCF guess.
 Guess from superposition of atomic densities
 Warning:  Energy on first SCF cycle will be non-variational
 An unrestricted hybrid HF-DFT SCF calculation will be
 performed using Relaxed Constraint Minimization + Pulay DIIS
 Exchange:     0.2000 Hartree-Fock + 0.0800 Slater + 0.7200 B88
 Correlation:  0.1900 VWN1RPA + 0.8100 LYP
 Using SG-1 standard quadrature grid
 SCF converges when DIIS error is below 1.0E-08
 Geometry optimization detected.  Setting ReadMinima to 0
 Setting SaveMinima to 0
 Inaccurate integrated density:
   Number of electrons =    87
   Numerical integral  =    86.000103492822
   Relative error      =    -1.1493063301 %
 Inaccurate integrated density:
   Number of electrons =    87
   Numerical integral  =    86.000103492822
   Relative error      =    -1.1493063301 %
 ---------------------------------------
  Cycle       Energy         DIIS Error
 ---------------------------------------
    1   -1106.9685009148      4.26E-02
    2   -1104.5847857901      5.27E-03
    3   -1104.6721613232      1.82E-03
    4   -1104.7576010338      2.47E-03
    5   -1104.7859458801      4.47E-04 Done RCA. Switching to DIIS
    6   -1104.8193566845      9.19E-04
    7   -1104.8255125920      3.81E-04
    8   -1104.8267691120      2.49E-04
    9   -1104.8272391758      1.62E-04
   10   -1104.8276669286      5.59E-05
   11   -1104.8277705963      2.85E-05
   12   -1104.8278213694      1.56E-05
   13   -1104.8278645886      1.30E-05
   14   -1104.8278820856      7.16E-06
   15   -1104.8278934748      2.96E-06
   16   -1104.8278942816      1.41E-06
   17   -1104.8278947808      5.71E-07
   18   -1104.8278949289      5.03E-07
   19   -1104.8278949599      2.64E-07
   20   -1104.8278949655      1.20E-07
   21   -1104.8278949677      5.36E-08
   22   -1104.8278949683      3.09E-08
   23   -1104.8278949686      2.82E-08
   24   -1104.8278949687      1.54E-08
   25   -1104.8278949688      8.71E-09 Convergence criterion met
 ---------------------------------------
 <S^2> = 0.7588
 SCF time:  CPU 18.12 s  wall 16.22 s
 SCF   energy in the final basis set = -1104.8278949688
 Total energy in the final basis set = -1104.8278949688
 
 --------------------------------------------------------------
             Orbital Energies (a.u.) and Symmetries
 --------------------------------------------------------------
 
 Alpha MOs, Unrestricted
 -- Occupied --                  
-88.751 -88.751 -10.064 -10.064 -10.060 -10.060 -10.049 -10.049
  1 B     1 A     2 A     2 B     3 B     3 A     4 B     4 A                  
-10.039 -10.039  -7.810  -7.810  -5.774  -5.774  -5.771  -5.771
  5 B     5 A     6 B     6 A     7 B     7 A     8 B     8 A                  
 -5.767  -5.767  -0.723  -0.704  -0.604  -0.579  -0.575  -0.539
  9 B     9 A    10 A    10 B    11 A    11 B    12 A    12 B                  
 -0.446  -0.412  -0.399  -0.373  -0.363  -0.318  -0.259  -0.258
 13 A    13 B    14 A    14 B    15 A    15 B    16 B    16 A                  
 -0.249  -0.244  -0.236  -0.213  -0.211  -0.191  -0.185  -0.109
 17 A    17 B    18 A    19 A    18 B    19 B    20 A    21 A                  
 -0.104  -0.100  -0.070   0.061
 20 B    22 A    21 B    23 A                                                  
 -- Virtual --                   
  0.093   0.094   0.109   0.110   0.117   0.124   0.133   0.147
 24 A    22 B    23 B    25 A    24 B    26 A    25 B    26 B                  
  0.152   0.156   0.159   0.170   0.177   0.180   0.180   0.186
 27 A    27 B    28 A    29 A    28 B    30 A    29 B    31 A                  
  0.190   0.200   0.208   0.211   0.212   0.219   0.221   0.225
 30 B    32 A    31 B    33 A    34 A    32 B    35 A    33 B                  
  0.232   0.239   0.239   0.242   0.244   0.252   0.259   0.261
 34 B    35 B    36 A    36 B    37 A    38 A    37 B    38 B                  
  0.263   0.273   0.282   0.282   0.289   0.294   0.295   0.305
 39 A    40 A    41 A    39 B    40 B    42 A    41 B    42 B                  
  0.309   0.318   0.333   0.333   0.342   0.349   0.353   0.357
 43 A    43 B    44 B    44 A    45 A    46 A    45 B    47 A                  
  0.374   0.387   0.393   0.402   0.405   0.417   0.432   0.446
 46 B    47 B    48 A    48 B    49 A    50 A    49 B    50 B                  
  0.452   0.458   0.474   0.487   0.489   0.506   0.537   0.580
 51 B    51 A    52 A    52 B    53 A    53 B    54 A    54 B                  
  0.606   0.608   0.645   0.666   0.675   0.682   0.716   0.724
 55 B    55 A    56 A    57 A    56 B    57 B    58 B    58 A                  
  0.744   0.770   0.771   0.798   0.812   0.823   0.830   0.839
 59 A    59 B    60 A    60 B    61 B    61 A    62 A    63 A                  
  0.858   0.870   0.870   0.890   0.900   0.912   0.929   0.938
 62 B    64 A    63 B    64 B    65 B    65 A    66 B    66 A                  
  0.958   0.963   0.982   0.994   1.027   1.057   1.086   1.093
 67 B    67 A    68 A    68 B    69 A    69 B    70 A    70 B                  
  1.103   1.105   1.114   1.117   1.127   1.134   1.157   1.164
 71 B    71 A    72 B    72 A    73 A    73 B    74 B    75 B                  
  1.169   1.174   1.225   1.239   1.240   1.253   1.257   1.281
 74 A    75 A    76 A    77 A    76 B    78 A    77 B    78 B                  
  1.323   1.354   1.364   1.406   1.410   1.469   1.495   1.506
 79 A    80 A    79 B    80 B    81 A    81 B    82 A    83 A                  
  1.510   1.522   1.548   1.622   1.626   1.642   1.689   1.707
 82 B    83 B    84 A    84 B    85 A    85 B    86 A    86 B                  
  1.840   1.843   1.911   1.973   2.001   2.037   2.044   2.066
 87 A    87 B    88 A    89 A    88 B    90 A    89 B    90 B                  
  2.070   2.115   2.151   2.152   2.164   2.206   2.248   2.261
 91 A    92 A    93 A    91 B    92 B    93 B    94 A    95 A                  
  2.284   2.313   2.318   2.345   2.405   2.413   2.492   2.515
 94 B    95 B    96 A    96 B    97 A    97 B    98 A    99 A                  
  2.516   2.572   2.585   2.617   2.620   2.649   2.656   2.674
 98 B    99 B   100 A   100 B   101 A   101 B   102 A   102 B                  
  2.674   2.732   2.739   2.752   2.804   2.843   2.855   2.903
103 A   103 B   104 A   104 B   105 A   106 A   105 B   106 B                  
  2.994   2.998   3.031   3.104   3.311   3.328   3.414   3.417
107 A   107 B   108 A   108 B   109 B   109 A   110 B   110 A                  
  3.554   3.573   3.863   3.883   4.126   4.130   4.441   4.455
111 A   111 B   112 A   112 B   113 A   113 B   114 A   115 A                  
  4.475   4.481   4.590   4.681   4.809   4.862
114 B   115 B   116 A   116 B   117 A   117 B                                  
 
 Beta MOs, Unrestricted
 -- Occupied --                  
-88.751 -88.751 -10.062 -10.062 -10.057 -10.057 -10.050 -10.050
  1 B     1 A     2 A     2 B     3 B     3 A     4 B     4 A                  
-10.038 -10.038  -7.810  -7.810  -5.774  -5.774  -5.771  -5.771
  5 B     5 A     6 B     6 A     7 B     7 A     8 B     8 A                  
 -5.766  -5.766  -0.719  -0.701  -0.599  -0.576  -0.572  -0.535
  9 B     9 A    10 A    10 B    11 A    11 B    12 A    12 B                  
 -0.440  -0.409  -0.396  -0.370  -0.361  -0.316  -0.257  -0.256
 13 A    13 B    14 A    14 B    15 A    15 B    16 B    16 A                  
 -0.244  -0.242  -0.231  -0.208  -0.204  -0.187  -0.181  -0.101
 17 A    17 B    18 A    19 A    18 B    19 B    20 A    21 A                  
 -0.096  -0.085  -0.055
 20 B    22 A    21 B                                                          
 -- Virtual --                   
  0.092   0.093   0.109   0.109   0.113   0.124   0.127   0.135
 23 A    22 B    23 B    24 A    25 A    26 A    24 B    25 B                  
  0.149   0.152   0.157   0.160   0.173   0.177   0.181   0.181
 26 B    27 A    27 B    28 A    29 A    28 B    30 A    29 B                  
  0.187   0.192   0.200   0.209   0.211   0.213   0.219   0.221
 31 A    30 B    32 A    31 B    33 A    34 A    32 B    35 A                  
  0.225   0.234   0.239   0.241   0.242   0.244   0.253   0.260
 33 B    34 B    36 A    35 B    36 B    37 A    38 A    37 B                  
  0.265   0.266   0.274   0.282   0.283   0.288   0.294   0.298
 39 A    38 B    40 A    39 B    41 A    40 B    42 A    41 B                  
  0.308   0.311   0.318   0.333   0.334   0.344   0.349   0.352
 42 B    43 A    43 B    44 A    44 B    45 A    46 A    45 B                  
  0.357   0.375   0.387   0.393   0.402   0.405   0.418   0.435
 47 A    46 B    47 B    48 A    48 B    49 A    50 A    49 B                  
  0.447   0.454   0.458   0.476   0.488   0.490   0.507   0.538
 50 B    51 B    51 A    52 A    52 B    53 A    53 B    54 A                  
  0.582   0.608   0.610   0.648   0.668   0.678   0.685   0.717
 54 B    55 B    55 A    56 A    57 A    56 B    57 B    58 B                  
  0.726   0.747   0.772   0.772   0.805   0.820   0.830   0.837
 58 A    59 A    59 B    60 A    60 B    61 B    61 A    62 A                  
  0.841   0.863   0.871   0.872   0.892   0.902   0.915   0.934
 63 A    62 B    63 B    64 A    64 B    65 B    65 A    66 B                  
  0.943   0.960   0.966   0.988   1.000   1.030   1.059   1.089
 66 A    67 B    67 A    68 A    68 B    69 A    69 B    70 A                  
  1.095   1.105   1.105   1.117   1.120   1.128   1.135   1.160
 70 B    71 A    71 B    72 B    72 A    73 A    73 B    74 B                  
  1.165   1.172   1.177   1.226   1.241   1.242   1.256   1.261
 75 B    74 A    75 A    76 A    76 B    77 A    78 A    77 B                  
  1.284   1.327   1.357   1.366   1.407   1.414   1.472   1.497
 78 B    79 A    80 A    79 B    80 B    81 A    81 B    82 A                  
  1.512   1.515   1.524   1.551   1.625   1.628   1.643   1.694
 83 A    82 B    83 B    84 A    84 B    85 A    85 B    86 A                  
  1.712   1.849   1.853   1.919   1.977   2.004   2.039   2.046
 86 B    87 A    87 B    88 A    89 A    88 B    90 A    89 B                  
  2.068   2.072   2.118   2.155   2.156   2.168   2.209   2.252
 90 B    91 A    92 A    93 A    91 B    92 B    93 B    94 A                  
  2.267   2.291   2.320   2.325   2.350   2.410   2.418   2.496
 95 A    94 B    95 B    96 A    96 B    97 A    97 B    98 A                  
  2.516   2.518   2.573   2.590   2.621   2.621   2.651   2.658
 99 A    98 B    99 B   100 A   100 B   101 A   101 B   102 A                  
  2.677   2.677   2.736   2.741   2.756   2.807   2.845   2.858
103 A   102 B   103 B   104 A   104 B   105 A   106 A   105 B                  
  2.907   2.996   3.000   3.033   3.106   3.312   3.329   3.414
106 B   107 A   107 B   108 A   108 B   109 B   109 A   110 B                  
  3.417   3.555   3.574   3.864   3.884   4.128   4.131   4.445
110 A   111 A   111 B   112 A   112 B   113 A   113 B   114 A                  
  4.457   4.480   4.482   4.595   4.686   4.811   4.865
115 A   114 B   115 B   116 A   116 B   117 A   117 B                          
 --------------------------------------------------------------
 
          Ground-State Mulliken Net Atomic Charges

     Atom                 Charge (a.u.)    Spin (a.u.)
  --------------------------------------------------------
      1 S                    -0.141478       0.129650
      2 C                    -0.155243       0.210376
      3 C                    -0.292676      -0.070295
      4 C                     0.020515       0.174769
      5 C                    -0.184151       0.008386
      6 H                     0.070514       0.023413
      7 C                    -0.184142       0.008383
      8 S                    -0.141480       0.129650
      9 C                     0.020519       0.174765
     10 C                    -0.155242       0.210377
     11 C                    -0.292681      -0.070291
     12 H                     0.064084       0.012581
     13 H                     0.118430       0.011123
     14 H                     0.064083       0.012583
     15 H                     0.118435       0.011118
     16 H                     0.070515       0.023412
  --------------------------------------------------------
  Sum of atomic charges =    -1.000000
  Sum of spin   charges =     1.000000

 -----------------------------------------------------------------
                    Cartesian Multipole Moments
 -----------------------------------------------------------------
    Charge (ESU x 10^10)
                -4.8032
    Dipole Moment (Debye)
         X      -0.0000      Y       0.0000      Z       0.3361
       Tot       0.3361
    Quadrupole Moments (Debye-Ang)
        XX    -101.3519     XY       1.4217     YY     -85.3957
        XZ       0.0000     YZ      -0.0000     ZZ     -87.2378
    Octopole Moments (Debye-Ang^2)
       XXX      -0.0010    XXY       0.0000    XYY      -0.0002
       YYY       0.0001    XXZ      -1.3863    XYZ       4.0343
       YYZ       3.5084    XZZ      -0.0002    YZZ      -0.0000
       ZZZ      -8.8429
    Hexadecapole Moments (Debye-Ang^3)
      XXXX   -2577.6290   XXXY     -19.5056   XXYY    -529.2590
      XYYY      21.1569   YYYY    -568.8827   XXXZ       0.0011
      XXYZ      -0.0004   XYYZ       0.0001   YYYZ      -0.0003
      XXZZ    -521.0559   XYZZ      -0.9445   YYZZ    -140.9343
      XZZZ      -0.0000   YZZZ      -0.0002   ZZZZ    -348.0805
 -----------------------------------------------------------------
 Calculating analytic gradient of the SCF energy
 Gradient of SCF Energy
            1           2           3           4           5           6
    1  -0.0020292   0.0020904  -0.0008018   0.0011237   0.0005665   0.0001600
    2   0.0026774   0.0007178  -0.0018101  -0.0030997   0.0026284   0.0001938
    3  -0.0013382   0.0020948  -0.0002963   0.0080128  -0.0058008  -0.0007130
            7           8           9          10          11          12
    1  -0.0005665   0.0020290  -0.0011235  -0.0020903   0.0008017  -0.0002219
    2  -0.0026287  -0.0026773   0.0030999  -0.0007178   0.0018100  -0.0001945
    3  -0.0058007  -0.0013383   0.0080128   0.0020948  -0.0002963  -0.0001647
           13          14          15          16
    1  -0.0001290   0.0002219   0.0001289  -0.0001600
    2   0.0006906   0.0001945  -0.0006905  -0.0001938
    3  -0.0017946  -0.0001647  -0.0017946  -0.0007130
 Max gradient component =       8.013E-03
 RMS gradient           =       2.472E-03
 Gradient time:  CPU 1.86 s  wall 1.85 s
 Geometry Optimization Parameters
   NAtoms,    NIC,     NZ,  NCons,   NDum,   NFix, NCnnct, MaxDiis
       16     111       0       1       0       0       0       0

 Cartesian Hessian Update
 Hessian Updated using BFGS Update


** CONSTRAINED OPTIMIZATION IN DELOCALIZED INTERNAL COORDINATES **
   Searching for a Minimum

   Optimization Cycle:   2

                       Coordinates (Angstroms)
     ATOM                X               Y               Z
      1  S         1.8262987820   -1.0640636336   -0.6531837180
      2  C         3.2477209583   -0.1679165120   -0.1222128201
      3  C         2.8751743277    0.9598214540    0.5890516002
      4  C         1.4802460228    1.1014720154    0.7653158220
      5  C         0.7081186261    0.1017999367    0.1493943122
      6  H         1.0206147537    1.9012388648    1.3369214439
      7  C        -0.7081186261   -0.1017999367    0.1493943122
      8  S        -1.8262987820    1.0640636336   -0.6531837180
      9  C        -1.4802460228   -1.1014720154    0.7653158220
     10  C        -3.2477209583    0.1679165120   -0.1222128201
     11  C        -2.8751743277   -0.9598214540    0.5890516002
     12  H        -3.6011925601   -1.6482082325    1.0164386187
     13  H         4.2407532102   -0.5288288416   -0.3517102510
     14  H         3.6011925601    1.6482082325    1.0164386187
     15  H        -4.2407532102    0.5288288416   -0.3517102510
     16  H        -1.0206147537   -1.9012388648    1.3369214439
   Point Group: c2    Number of degrees of freedom:    22


   Energy is  -1104.827894969

              Constraints and their Current Values
                                        Value     Constraint
   Dihedral:        4   5   7   9     -110.000     -110.000
 Hessian Updated using BFGS Update

 17 Hessian modes will be used to form the next step
  Hessian Eigenvalues:
     0.022384    0.047607    0.159654    0.160000    0.160420    0.219329
     0.241941    0.252748    0.263038    0.283823    0.351035    0.354142
     0.358568    0.410412    0.425145    0.470653    0.527018

 Minimum Search - Taking Simple RFO Step
 Searching for Lamda that Minimizes Along All modes
 Value Taken    Lamda =  -0.00260485
 Calculated Step too Large.  Step scaled by  0.942394
 Step Taken.  Stepsize is  0.300000

                             Maximum     Tolerance    Cnvgd?
         Gradient           0.005541      0.000300      NO
         Displacement       0.215912      0.001200      NO
         Energy change     -0.003210      0.000001      NO


 New Cartesian Coordinates Obtained by Inverse Iteration

 Displacement from previous Coordinates is:  0.757012
 ----------------------------------------------------------------
             Standard Nuclear Orientation (Angstroms)
    I     Atom           X                Y                Z
 ----------------------------------------------------------------
    1      S       1.8588349013    -1.1032282781    -0.6223802955
    2      C       3.2518693981    -0.1947883956    -0.0533840662
    3      C       2.8574359108     0.9746676184     0.5781826827
    4      C       1.4561892954     1.1260494387     0.6811092527
    5      C       0.7078693710     0.1151424743     0.0665720371
    6      H       0.9726305764     1.9351300704     1.2204508749
    7      C      -0.7078693710    -0.1151424743     0.0665720371
    8      S      -1.8588349013     1.1032282781    -0.6223802955
    9      C      -1.4561892954    -1.1260494387     0.6811092527
   10      C      -3.2518693981     0.1947883956    -0.0533840662
   11      C      -2.8574359108    -0.9746676184     0.5781826827
   12      H      -3.5650921182    -1.6654732646     1.0308083862
   13      H       4.2511210854    -0.5904032927    -0.1713438641
   14      H       3.5650921182     1.6654732646     1.0308083862
   15      H      -4.2511210854     0.5904032927    -0.1713438641
   16      H      -0.9726305764    -1.9351300704     1.2204508749
 ----------------------------------------------------------------
 Molecular Point Group                 C2    NOp =  2
 Largest Abelian Subgroup              C2    NOp =  2
 Nuclear Repulsion Energy =   619.9969690153 hartrees
 There are       44 alpha and       43 beta electrons
 Applying Cartesian multipole field
    Component          Value
    ---------          -----
     (2,0,0)        1.00000E-11
     (0,2,0)        2.00000E-11
     (0,0,2)       -3.00000E-11
 Nucleus-field energy     =     0.0000000182 hartrees
 Requested basis set is 6-31++G(d,p)
 There are 76 shells and 234 basis functions
 A cutoff of  1.0D-12 yielded   2524 shell pairs
 There are     24876 function pairs
 Smallest overlap matrix eigenvalue = 1.08E-06
 Guess MOs from SCF MO coefficient file
 Reading MOs from coefficient file
 Reading MOs from coefficient file
 An unrestricted hybrid HF-DFT SCF calculation will be
 performed using Relaxed Constraint Minimization + Pulay DIIS
 Exchange:     0.2000 Hartree-Fock + 0.0800 Slater + 0.7200 B88
 Correlation:  0.1900 VWN1RPA + 0.8100 LYP
 Using SG-1 standard quadrature grid
 SCF converges when DIIS error is below 1.0E-08
 Geometry optimization detected.  Setting ReadMinima to 0
 Setting SaveMinima to 0
 Inaccurate integrated density:
   Number of electrons =    87
   Numerical integral  =    86.976925329367
   Relative error      =    -0.0265226099 %
 Inaccurate integrated density:
   Number of electrons =    87
   Numerical integral  =    86.976925329367
   Relative error      =    -0.0265226099 %
 ---------------------------------------
  Cycle       Energy         DIIS Error
 ---------------------------------------
    1   -1104.8241101190      2.61E-03
    2   -1104.8289644686      2.51E-04 Done RCA. Switching to DIIS
    3   -1104.8281358001      4.29E-04
    4   -1104.8296145592      6.05E-05
    5   -1104.8296263946      4.90E-05
    6   -1104.8296458677      1.15E-05
    7   -1104.8296475221      2.91E-06
    8   -1104.8296477521      8.23E-07
    9   -1104.8296478869      6.15E-07
   10   -1104.8296479718      3.47E-07
   11   -1104.8296480046      1.50E-07
   12   -1104.8296480127      6.14E-08
   13   -1104.8296480141      4.77E-08
   14   -1104.8296480145      1.82E-08
   15   -1104.8296480147      1.02E-08
   16   -1104.8296480147      2.89E-09 Convergence criterion met
 ---------------------------------------
 <S^2> = 0.7598
 SCF time:  CPU 11.54 s  wall 10.30 s
 SCF   energy in the final basis set = -1104.8296480147
 Total energy in the final basis set = -1104.8296480147
 
 --------------------------------------------------------------
             Orbital Energies (a.u.) and Symmetries
 --------------------------------------------------------------
 
 Alpha MOs, Unrestricted
 -- Occupied --                  
-88.751 -88.751 -10.065 -10.065 -10.059 -10.059 -10.049 -10.049
  1 B     1 A     2 A     2 B     3 B     3 A     4 A     4 B                  
-10.038 -10.038  -7.810  -7.810  -5.774  -5.774  -5.771  -5.771
  5 B     5 A     6 B     6 A     7 B     7 A     8 B     8 A                  
 -5.767  -5.767  -0.723  -0.704  -0.604  -0.580  -0.575  -0.539
  9 B     9 A    10 A    10 B    11 A    11 B    12 A    12 B                  
 -0.445  -0.413  -0.398  -0.373  -0.363  -0.318  -0.260  -0.257
 13 A    13 B    14 A    14 B    15 A    15 B    16 B    16 A                  
 -0.248  -0.243  -0.236  -0.214  -0.211  -0.191  -0.184  -0.110
 17 A    17 B    18 A    19 A    18 B    19 B    20 A    21 A                  
 -0.104  -0.102  -0.068   0.059
 20 B    22 A    21 B    23 A                                                  
 -- Virtual --                   
  0.093   0.094   0.109   0.111   0.121   0.124   0.133   0.146
 24 A    22 B    23 B    25 A    24 B    26 A    25 B    26 B                  
  0.153   0.157   0.159   0.168   0.178   0.179   0.182   0.185
 27 A    27 B    28 A    29 A    28 B    29 B    30 A    31 A                  
  0.190   0.202   0.207   0.212   0.213   0.219   0.222   0.225
 30 B    32 A    31 B    33 A    34 A    32 B    35 A    33 B                  
  0.232   0.239   0.241   0.243   0.246   0.255   0.255   0.262
 34 B    36 A    35 B    36 B    37 A    38 A    37 B    38 B                  
  0.263   0.274   0.278   0.281   0.289   0.296   0.299   0.308
 39 A    40 A    41 A    39 B    40 B    42 A    41 B    42 B                  
  0.308   0.317   0.328   0.331   0.342   0.350   0.358   0.358
 43 A    43 B    44 A    44 B    45 A    46 A    47 A    45 B                  
  0.373   0.391   0.393   0.401   0.407   0.418   0.430   0.440
 46 B    47 B    48 A    48 B    49 A    50 A    49 B    50 B                  
  0.453   0.457   0.475   0.486   0.490   0.505   0.536   0.581
 51 B    51 A    52 A    52 B    53 A    53 B    54 A    54 B                  
  0.605   0.610   0.650   0.670   0.671   0.681   0.712   0.725
 55 B    55 A    56 A    56 B    57 A    57 B    58 B    58 A                  
  0.738   0.766   0.769   0.808   0.810   0.820   0.831   0.844
 59 A    59 B    60 A    60 B    61 B    61 A    62 A    63 A                  
  0.857   0.869   0.872   0.892   0.906   0.911   0.925   0.941
 62 B    64 A    63 B    64 B    65 B    65 A    66 B    66 A                  
  0.961   0.963   0.982   0.992   1.024   1.058   1.081   1.095
 67 A    67 B    68 A    68 B    69 A    69 B    70 A    70 B                  
  1.099   1.104   1.113   1.117   1.128   1.132   1.158   1.166
 71 B    71 A    72 A    72 B    73 A    73 B    74 B    75 B                  
  1.167   1.168   1.227   1.239   1.240   1.246   1.254   1.288
 74 A    75 A    76 A    76 B    77 A    78 A    77 B    78 B                  
  1.321   1.351   1.356   1.400   1.413   1.461   1.484   1.515
 79 A    79 B    80 A    80 B    81 A    81 B    82 A    83 A                  
  1.520   1.523   1.559   1.604   1.618   1.635   1.700   1.708
 82 B    83 B    84 A    84 B    85 A    85 B    86 B    86 A                  
  1.840   1.846   1.891   1.971   2.013   2.034   2.042   2.067
 87 A    87 B    88 A    89 A    88 B    90 A    89 B    91 A                  
  2.069   2.114   2.154   2.156   2.168   2.204   2.247   2.265
 90 B    92 A    91 B    93 A    92 B    93 B    94 A    95 A                  
  2.289   2.316   2.321   2.342   2.404   2.406   2.490   2.517
 94 B    96 A    95 B    96 B    97 A    97 B    98 A    99 A                  
  2.518   2.574   2.585   2.605   2.626   2.647   2.651   2.677
 98 B    99 B   100 A   100 B   101 A   101 B   102 A   103 A                  
  2.678   2.732   2.737   2.757   2.807   2.839   2.857   2.901
102 B   103 B   104 A   104 B   105 A   106 A   105 B   106 B                  
  2.991   3.000   3.034   3.102   3.310   3.329   3.414   3.417
107 A   107 B   108 A   108 B   109 B   109 A   110 B   110 A                  
  3.552   3.570   3.862   3.882   4.125   4.132   4.440   4.458
111 A   111 B   112 A   112 B   113 A   113 B   114 A   115 A                  
  4.463   4.481   4.586   4.679   4.808   4.862
114 B   115 B   116 A   116 B   117 A   117 B                                  
 
 Beta MOs, Unrestricted
 -- Occupied --                  
-88.751 -88.751 -10.063 -10.063 -10.056 -10.056 -10.050 -10.050
  1 B     1 A     2 A     2 B     3 B     3 A     4 A     4 B                  
-10.037 -10.037  -7.809  -7.809  -5.774  -5.774  -5.771  -5.771
  5 B     5 A     6 B     6 A     7 B     7 A     8 B     8 A                  
 -5.766  -5.766  -0.719  -0.701  -0.598  -0.577  -0.572  -0.535
  9 B     9 A    10 A    10 B    11 A    11 B    12 A    12 B                  
 -0.439  -0.410  -0.395  -0.370  -0.361  -0.316  -0.258  -0.255
 13 A    13 B    14 A    14 B    15 A    15 B    16 B    16 A                  
 -0.243  -0.241  -0.230  -0.209  -0.203  -0.188  -0.180  -0.101
 17 A    17 B    18 A    19 A    18 B    19 B    20 A    21 A                  
 -0.096  -0.088  -0.052
 20 B    22 A    21 B                                                          
 -- Virtual --                   
  0.092   0.094   0.109   0.110   0.111   0.124   0.129   0.137
 23 A    22 B    23 B    24 A    25 A    26 A    24 B    25 B                  
  0.150   0.153   0.157   0.160   0.171   0.178   0.180   0.183
 26 B    27 A    27 B    28 A    29 A    28 B    29 B    30 A                  
  0.187   0.193   0.202   0.207   0.212   0.214   0.219   0.222
 31 A    30 B    32 A    31 B    33 A    34 A    32 B    35 A                  
  0.225   0.234   0.238   0.242   0.243   0.246   0.255   0.261
 33 B    34 B    36 A    35 B    36 B    37 A    38 A    37 B                  
  0.263   0.266   0.275   0.280   0.281   0.289   0.296   0.302
 38 B    39 A    40 A    41 A    39 B    40 B    42 A    41 B                  
  0.309   0.310   0.317   0.329   0.333   0.343   0.351   0.358
 42 B    43 A    43 B    44 A    44 B    45 A    46 A    47 A                  
  0.358   0.373   0.392   0.394   0.402   0.407   0.419   0.434
 45 B    46 B    47 B    48 A    48 B    49 A    50 A    49 B                  
  0.441   0.455   0.458   0.477   0.486   0.492   0.506   0.537
 50 B    51 B    51 A    52 A    52 B    53 A    53 B    54 A                  
  0.583   0.606   0.612   0.653   0.673   0.674   0.683   0.713
 54 B    55 B    55 A    56 A    56 B    57 A    57 B    58 B                  
  0.727   0.741   0.767   0.770   0.813   0.820   0.829   0.837
 58 A    59 A    59 B    60 A    60 B    61 B    61 A    62 A                  
  0.846   0.861   0.871   0.873   0.893   0.909   0.914   0.930
 63 A    62 B    64 A    63 B    64 B    65 B    65 A    66 B                  
  0.946   0.964   0.965   0.988   0.998   1.027   1.060   1.085
 66 A    67 A    67 B    68 A    68 B    69 A    69 B    70 A                  
  1.097   1.101   1.104   1.116   1.120   1.130   1.133   1.160
 70 B    71 B    71 A    72 A    72 B    73 A    73 B    74 B                  
  1.167   1.169   1.171   1.228   1.241   1.243   1.249   1.258
 75 B    74 A    75 A    76 A    76 B    77 A    78 A    77 B                  
  1.291   1.325   1.352   1.359   1.402   1.417   1.465   1.486
 78 B    79 A    79 B    80 A    80 B    81 A    81 B    82 A                  
  1.521   1.522   1.528   1.561   1.607   1.620   1.637   1.705
 83 A    82 B    83 B    84 A    84 B    85 A    85 B    86 B                  
  1.713   1.849   1.856   1.900   1.974   2.015   2.037   2.044
 86 A    87 A    87 B    88 A    89 A    88 B    90 A    89 B                  
  2.070   2.071   2.116   2.157   2.160   2.171   2.208   2.251
 91 A    90 B    92 A    91 B    93 A    92 B    93 B    94 A                  
  2.271   2.296   2.324   2.327   2.348   2.409   2.411   2.494
 95 A    94 B    96 A    95 B    96 B    97 A    97 B    98 A                  
  2.518   2.520   2.575   2.589   2.610   2.628   2.649   2.653
 99 A    98 B    99 B   100 A   100 B   101 A   101 B   102 A                  
  2.680   2.681   2.736   2.740   2.760   2.810   2.841   2.860
103 A   102 B   103 B   104 A   104 B   105 A   106 A   105 B                  
  2.906   2.993   3.002   3.036   3.104   3.311   3.330   3.414
106 B   107 A   107 B   108 A   108 B   109 B   109 A   110 B                  
  3.417   3.553   3.572   3.863   3.884   4.127   4.134   4.444
110 A   111 A   111 B   112 A   112 B   113 A   113 B   114 A                  
  4.460   4.467   4.484   4.592   4.685   4.811   4.864
[...]
      4 C                    -0.064387       0.233799
      5 C                    -0.110474      -0.008616
      6 H                     0.078904       0.021180
      7 C                    -0.110474      -0.008616
      8 S                    -0.147209       0.091925
      9 C                    -0.064387       0.233799
     10 C                    -0.122865       0.250278
     11 C                    -0.332342      -0.098858
     12 H                     0.065147       0.009332
     13 H                     0.133225       0.000960
     14 H                     0.065147       0.009332
     15 H                     0.133225       0.000960
     16 H                     0.078904       0.021180
  --------------------------------------------------------
  Sum of atomic charges =    -1.000000
  Sum of spin   charges =     1.000000

 -----------------------------------------------------------------
                    Cartesian Multipole Moments
 -----------------------------------------------------------------
    Charge (ESU x 10^10)
                -4.8032
    Dipole Moment (Debye)
         X       0.0000      Y      -0.0000      Z       0.5521
       Tot       0.5521
    Quadrupole Moments (Debye-Ang)
        XX    -101.0239     XY       0.9748     YY     -84.9630
        XZ       0.0000     YZ       0.0000     ZZ     -86.7826
    Octopole Moments (Debye-Ang^2)
       XXX      -0.0000    XXY      -0.0000    XYY      -0.0000
       YYY       0.0000    XXZ       6.6326    XYZ       3.5436
       YYZ       1.5816    XZZ      -0.0000    YZZ      -0.0000
       ZZZ     -12.1701
    Hexadecapole Moments (Debye-Ang^3)
      XXXX   -2547.2230   XXXY      -7.7404   XXYY    -521.7782
      XYYY      43.4102   YYYY    -621.5964   XXXZ       0.0000
      XXYZ      -0.0000   XYYZ      -0.0000   YYYZ      -0.0000
      XXZZ    -501.4452   XYZZ      13.4406   YYZZ    -144.6800
      XZZZ      -0.0000   YZZZ       0.0000   ZZZZ    -273.5421
 -----------------------------------------------------------------
 Calculating analytic gradient of the SCF energy
 Gradient of SCF Energy
            1           2           3           4           5           6
    1   0.0000536  -0.0000463   0.0000427   0.0011595  -0.0026468   0.0000069
    2   0.0000215  -0.0000395   0.0000570  -0.0063058   0.0141447   0.0000241
    3  -0.0000008  -0.0000506   0.0000019   0.0090747  -0.0090007  -0.0000435
            7           8           9          10          11          12
    1   0.0026468  -0.0000536  -0.0011595   0.0000463  -0.0000427  -0.0000059
    2  -0.0141447  -0.0000215   0.0063058   0.0000395  -0.0000570   0.0000135
    3  -0.0090007  -0.0000008   0.0090747  -0.0000506   0.0000019  -0.0000091
           13          14          15          16
    1  -0.0000051   0.0000059   0.0000051  -0.0000069
    2  -0.0000231  -0.0000135   0.0000231  -0.0000241
    3   0.0000280  -0.0000091   0.0000280  -0.0000435
 Max gradient component =       1.414E-02
 RMS gradient           =       4.141E-03
 Gradient time:  CPU 1.83 s  wall 1.84 s
 Geometry Optimization Parameters
   NAtoms,    NIC,     NZ,  NCons,   NDum,   NFix, NCnnct, MaxDiis
       16     111       0       1       0       0       0       0

 Cartesian Hessian Update
 Hessian Updated using BFGS Update


** CONSTRAINED OPTIMIZATION IN DELOCALIZED INTERNAL COORDINATES **
   Searching for a Minimum

   Optimization Cycle:  11

                       Coordinates (Angstroms)
     ATOM                X               Y               Z
      1  S         1.8646868873   -1.1642766896   -0.5197209464
      2  C         3.2392740634   -0.2346832189    0.0714692451
      3  C         2.8193883221    0.9786883728    0.5907166679
      4  C         1.4227036638    1.1781679867    0.5491809037
      5  C         0.6980428550    0.1389075035   -0.0654921089
      6  H         0.9207459180    2.0394575291    0.9788562531
      7  C        -0.6980428550   -0.1389075035   -0.0654921089
      8  S        -1.8646868873    1.1642766896   -0.5197209464
      9  C        -1.4227036638   -1.1781679867    0.5491809037
     10  C        -3.2392740634    0.2346832189    0.0714692451
     11  C        -2.8193883221   -0.9786883728    0.5907166679
     12  H        -3.5052606118   -1.6904107612    1.0443848315
     13  H         4.2315353409   -0.6644518700    0.0806201619
     14  H         3.5052606118    1.6904107612    1.0443848315
     15  H        -4.2315353409    0.6644518700    0.0806201619
     16  H        -0.9207459180   -2.0394575291    0.9788562531
   Point Group: c2    Number of degrees of freedom:    22


   Energy is  -1104.831185834

              Constraints and their Current Values
                                        Value     Constraint
   Dihedral:        4   5   7   9     -110.000     -110.000
 Hessian Updated using BFGS Update

 21 Hessian modes will be used to form the next step
  Hessian Eigenvalues:
     0.007092    0.011767    0.022444    0.045027    0.046456    0.047455
     0.158622    0.160264    0.160548    0.221330    0.243998    0.248239
     0.251738    0.284643    0.351162    0.354216    0.358671    0.415094
     0.427050    0.470864    0.493015

 Minimum Search - Taking Simple RFO Step
 Searching for Lamda that Minimizes Along All modes
 Value Taken    Lamda =   0.00000000
 Step Taken.  Stepsize is  0.005199

                             Maximum     Tolerance    Cnvgd?
         Gradient           0.000119      0.000300     YES
         Displacement       0.003467      0.001200      NO
         Energy change     -0.000001      0.000001     YES

 Final energy is   -1104.83118583424     


 ******************************
 **  OPTIMIZATION CONVERGED  **
 ******************************

                       Coordinates (Angstroms)
     ATOM                X               Y               Z
      1  S         1.8646868873   -1.1642766896   -0.5197209464
      2  C         3.2392740634   -0.2346832189    0.0714692451
      3  C         2.8193883221    0.9786883728    0.5907166679
      4  C         1.4227036638    1.1781679867    0.5491809037
      5  C         0.6980428550    0.1389075035   -0.0654921089
      6  H         0.9207459180    2.0394575291    0.9788562531
      7  C        -0.6980428550   -0.1389075035   -0.0654921089
      8  S        -1.8646868873    1.1642766896   -0.5197209464
      9  C        -1.4227036638   -1.1781679867    0.5491809037
     10  C        -3.2392740634    0.2346832189    0.0714692451
     11  C        -2.8193883221   -0.9786883728    0.5907166679
     12  H        -3.5052606118   -1.6904107612    1.0443848315
     13  H         4.2315353409   -0.6644518700    0.0806201619
     14  H         3.5052606118    1.6904107612    1.0443848315
     15  H        -4.2315353409    0.6644518700    0.0806201619
     16  H        -0.9207459180   -2.0394575291    0.9788562531

Z-matrix Print:
$molecule
-1 2
S 
C  1 1.761573
H  2 1.081373 1 120.605857
C  2 1.384988 1 110.583398 3 174.616732 0
H  4 1.087559 2 122.583514 1 -177.586426 0
C  4 1.411469 2 114.379364 1 -0.982291 0
H  6 1.085542 4 123.920595 2 -175.357400 0
C  6 1.408197 4 114.692974 2 2.686991 0
C  8 1.423459 6 130.446831 4 -166.351985 0
C  9 1.408197 8 130.446831 6 109.999990 0
H  10 1.085542 9 121.356963 8 11.747687 0
C  10 1.411469 9 114.692974 8 -166.351985 0
H  12 1.087559 10 122.945066 9 179.277291 0
C  12 1.384988 10 114.379364 9 2.686991 0
H  14 1.081373 12 128.549911 10 173.091389 0
S  14 1.761573 12 110.583398 10 -0.982291 0
$end

 
 --------------------------------------------------------------
             Orbital Energies (a.u.) and Symmetries
 --------------------------------------------------------------
 
 Alpha MOs, Unrestricted
 -- Occupied --                  
-88.750 -88.750 -10.066 -10.065 -10.058 -10.058 -10.049 -10.049
  1 B     1 A     2 A     2 B     3 B     3 A     4 A     4 B                  
-10.037 -10.037  -7.809  -7.809  -5.773  -5.773  -5.770  -5.770
  5 A     5 B     6 B     6 A     7 A     7 B     8 B     8 A                  
 -5.767  -5.767  -0.723  -0.703  -0.605  -0.580  -0.573  -0.538
  9 A     9 B    10 A    10 B    11 A    11 B    12 A    12 B                  
 -0.446  -0.414  -0.396  -0.371  -0.362  -0.317  -0.261  -0.257
 13 A    13 B    14 A    14 B    15 A    15 B    16 B    16 A                  
 -0.246  -0.242  -0.238  -0.213  -0.210  -0.192  -0.180  -0.112
 17 A    17 B    18 A    19 A    18 B    19 B    20 A    21 A                  
 -0.105  -0.105  -0.061   0.055
 20 B    22 A    21 B    23 A                                                  
 -- Virtual --                   
  0.094   0.095   0.110   0.112   0.125   0.126   0.134   0.146
 24 A    22 B    23 B    25 A    26 A    24 B    25 B    26 B                  
  0.154   0.161   0.161   0.167   0.176   0.183   0.184   0.185
 27 A    27 B    28 A    29 A    28 B    30 A    29 B    31 A                  
  0.191   0.204   0.206   0.213   0.218   0.220   0.224   0.226
 30 B    32 A    31 B    33 A    32 B    34 A    35 A    33 B                  
  0.234   0.238   0.242   0.244   0.248   0.248   0.257   0.265
 34 B    36 A    35 B    36 B    37 A    37 B    38 A    38 B                  
  0.269   0.274   0.277   0.280   0.290   0.297   0.298   0.306
 39 A    40 A    41 A    39 B    40 B    41 B    42 A    43 A                  
  0.317   0.320   0.324   0.329   0.340   0.355   0.358   0.362
 42 B    43 B    44 A    44 B    45 A    46 A    47 A    45 B                  
  0.373   0.388   0.391   0.401   0.411   0.419   0.428   0.434
 46 B    47 B    48 A    48 B    49 A    50 A    49 B    50 B                  
  0.453   0.455   0.475   0.481   0.494   0.506   0.538   0.570
 51 B    51 A    52 A    52 B    53 A    53 B    54 A    54 B                  
  0.602   0.612   0.662   0.666   0.684   0.689   0.710   0.712
 55 B    55 A    56 A    56 B    57 A    57 B    58 B    58 A                  
  0.740   0.763   0.775   0.801   0.818   0.818   0.831   0.843
 59 A    59 B    60 A    60 B    61 A    61 B    62 A    62 B                  
  0.844   0.871   0.874   0.894   0.905   0.911   0.926   0.935
 63 A    64 A    63 B    64 B    65 B    65 A    66 B    66 A                  
  0.964   0.979   0.984   0.988   1.022   1.059   1.068   1.100
 67 A    67 B    68 A    68 B    69 A    69 B    70 A    70 B                  
  1.107   1.107   1.113   1.114   1.131   1.133   1.156   1.167
 71 B    71 A    72 A    72 B    73 A    73 B    74 A    74 B                  
  1.169   1.172   1.225   1.239   1.242   1.243   1.255   1.291
 75 B    75 A    76 A    77 A    78 A    76 B    77 B    78 B                  
  1.316   1.319   1.366   1.393   1.414   1.464   1.501   1.502
 79 A    79 B    80 A    80 B    81 A    81 B    82 A    82 B                  
  1.523   1.527   1.548   1.574   1.593   1.645   1.688   1.758
 83 A    83 B    84 A    84 B    85 A    85 B    86 B    86 A                  
  1.833   1.852   1.865   1.987   2.004   2.034   2.041   2.065
 87 A    87 B    88 A    89 A    88 B    90 A    89 B    91 A                  
  2.069   2.112   2.141   2.160   2.172   2.220   2.237   2.259
 90 B    92 A    91 B    93 A    92 B    93 B    94 A    95 A                  
  2.283   2.303   2.327   2.346   2.395   2.402   2.493   2.522
 94 B    96 A    95 B    96 B    97 B    97 A    98 A    98 B                  
  2.523   2.568   2.588   2.594   2.625   2.651   2.661   2.679
 99 A    99 B   100 A   100 B   101 A   101 B   102 A   102 B                  
  2.680   2.729   2.738   2.762   2.809   2.842   2.848   2.908
103 A   103 B   104 A   104 B   105 A   106 A   105 B   106 B                  
  2.987   2.999   3.033   3.100   3.311   3.329   3.417   3.417
107 A   107 B   108 A   108 B   109 B   109 A   110 A   110 B                  
  3.555   3.568   3.861   3.882   4.128   4.134   4.436   4.447
111 A   111 B   112 A   112 B   113 A   113 B   114 A   114 B                  
  4.468   4.485   4.584   4.678   4.811   4.861
115 A   115 B   116 A   116 B   117 A   117 B                                  
 
 Beta MOs, Unrestricted
 -- Occupied --                  
-88.750 -88.750 -10.064 -10.064 -10.055 -10.055 -10.050 -10.050
  1 B     1 A     2 A     2 B     3 B     3 A     4 A     4 B                  
-10.035 -10.035  -7.809  -7.809  -5.773  -5.773  -5.770  -5.770
  5 A     5 B     6 B     6 A     7 A     7 B     8 B     8 A                  
 -5.765  -5.765  -0.720  -0.700  -0.600  -0.577  -0.569  -0.534
  9 A     9 B    10 A    10 B    11 A    11 B    12 A    12 B                  
 -0.440  -0.411  -0.393  -0.368  -0.361  -0.316  -0.259  -0.255
 13 A    13 B    14 A    14 B    15 A    15 B    16 B    16 A                  
 -0.242  -0.240  -0.232  -0.209  -0.201  -0.189  -0.177  -0.099
 17 A    17 B    18 A    19 A    18 B    19 B    20 A    21 A                  
 -0.097  -0.096  -0.045
 20 B    22 A    21 B                                                          
 -- Virtual --                   
  0.092   0.094   0.108   0.109   0.112   0.125   0.132   0.140
 23 A    22 B    24 A    23 B    25 A    26 A    24 B    25 B                  
  0.150   0.154   0.161   0.161   0.169   0.176   0.184   0.185
 26 B    27 A    28 A    27 B    29 A    28 B    29 B    30 A                  
  0.186   0.194   0.204   0.207   0.214   0.219   0.221   0.225
 31 A    30 B    32 A    31 B    33 A    32 B    34 A    35 A                  
  0.227   0.236   0.238   0.242   0.245   0.249   0.254   0.258
 33 B    34 B    36 A    35 B    36 B    37 A    37 B    38 A                  
  0.266   0.270   0.276   0.278   0.280   0.291   0.299   0.300
 38 B    39 A    40 A    41 A    39 B    40 B    42 A    41 B                  
  0.306   0.317   0.321   0.326   0.331   0.341   0.356   0.359
 43 A    42 B    43 B    44 A    44 B    45 A    46 A    47 A                  
  0.362   0.374   0.388   0.391   0.402   0.411   0.420   0.430
 45 B    46 B    47 B    48 A    48 B    49 A    50 A    49 B                  
  0.435   0.456   0.456   0.476   0.481   0.496   0.507   0.539
 50 B    51 B    51 A    52 A    52 B    53 A    53 B    54 A                  
  0.573   0.604   0.614   0.665   0.669   0.687   0.692   0.711
 54 B    55 B    55 A    56 A    56 B    57 A    57 B    58 B                  
  0.714   0.742   0.765   0.777   0.807   0.826   0.829   0.837
 58 A    59 A    59 B    60 A    60 B    61 A    61 B    62 A                  
  0.845   0.847   0.873   0.875   0.896   0.909   0.915   0.929
 62 B    63 A    64 A    63 B    64 B    65 B    65 A    66 B                  
  0.940   0.968   0.981   0.990   0.994   1.025   1.061   1.071
 66 A    67 A    67 B    68 A    68 B    69 A    69 B    70 A                  
  1.102   1.108   1.110   1.114   1.117   1.133   1.134   1.159
 70 B    71 B    71 A    72 A    72 B    73 A    73 B    74 A                  
  1.169   1.170   1.173   1.227   1.241   1.244   1.246   1.259
 74 B    75 B    75 A    76 A    77 A    76 B    78 A    77 B                  
  1.295   1.320   1.320   1.368   1.395   1.417   1.468   1.504
 78 B    79 B    79 A    80 A    80 B    81 A    81 B    82 A                  
  1.505   1.528   1.532   1.551   1.577   1.595   1.647   1.692
 82 B    83 A    83 B    84 A    84 B    85 A    85 B    86 B                  
  1.762   1.842   1.862   1.875   1.989   2.007   2.037   2.043
 86 A    87 A    87 B    88 A    89 A    88 B    90 A    89 B                  
  2.068   2.071   2.114   2.145   2.163   2.174   2.226   2.240
 91 A    90 B    92 A    91 B    93 A    92 B    93 B    94 A                  
  2.266   2.290   2.311   2.330   2.354   2.399   2.407   2.497
 95 A    94 B    96 A    95 B    96 B    97 B    97 A    98 A                  
  2.524   2.525   2.570   2.592   2.598   2.628   2.653   2.663
 98 B    99 A    99 B   100 A   100 B   101 A   101 B   102 A                  
  2.683   2.683   2.733   2.741   2.765   2.811   2.844   2.851
102 B   103 A   103 B   104 A   104 B   105 A   106 A   105 B                  
  2.913   2.989   3.001   3.035   3.102   3.312   3.330   3.417
106 B   107 A   107 B   108 A   108 B   109 B   109 A   110 A                  
  3.417   3.556   3.570   3.862   3.884   4.130   4.136   4.440
110 B   111 A   111 B   112 A   112 B   113 A   113 B   114 A                  
  4.451   4.471   4.487   4.590   4.683   4.814   4.864
114 B   115 A   115 B   116 A   116 B   117 A   117 B                          
 --------------------------------------------------------------
 
          Ground-State Mulliken Net Atomic Charges

     Atom                 Charge (a.u.)    Spin (a.u.)
  --------------------------------------------------------
      1 S                    -0.147209       0.091925
      2 C                    -0.122865       0.250278
      3 C                    -0.332342      -0.098858
      4 C                    -0.064387       0.233799
      5 C                    -0.110474      -0.008616
      6 H                     0.078904       0.021180
      7 C                    -0.110474      -0.008616
      8 S                    -0.147209       0.091925
      9 C                    -0.064387       0.233799
     10 C                    -0.122865       0.250278
     11 C                    -0.332342      -0.098858
     12 H                     0.065147       0.009332
     13 H                     0.133225       0.000960
     14 H                     0.065147       0.009332
     15 H                     0.133225       0.000960
     16 H                     0.078904       0.021180
  --------------------------------------------------------
  Sum of atomic charges =    -1.000000
  Sum of spin   charges =     1.000000

 -----------------------------------------------------------------
                    Cartesian Multipole Moments
 -----------------------------------------------------------------
    Charge (ESU x 10^10)
                -4.8032
    Dipole Moment (Debye)
         X       0.0000      Y      -0.0000      Z       0.5521
       Tot       0.5521
    Quadrupole Moments (Debye-Ang)
        XX    -101.0239     XY       0.9748     YY     -84.9630
        XZ       0.0000     YZ       0.0000     ZZ     -86.7826
    Octopole Moments (Debye-Ang^2)
       XXX      -0.0000    XXY      -0.0000    XYY      -0.0000
       YYY       0.0000    XXZ       6.6326    XYZ       3.5436
       YYZ       1.5816    XZZ      -0.0000    YZZ      -0.0000
       ZZZ     -12.1701
    Hexadecapole Moments (Debye-Ang^3)
      XXXX   -2547.2230   XXXY      -7.7404   XXYY    -521.7782
      XYYY      43.4102   YYYY    -621.5964   XXXZ       0.0000
      XXYZ      -0.0000   XYYZ      -0.0000   YYYZ      -0.0000
      XXZZ    -501.4452   XYZZ      13.4406   YYZZ    -144.6800
      XZZZ      -0.0000   YZZZ       0.0000   ZZZZ    -273.5421
 -----------------------------------------------------------------
Archival summary:
1\1\nid01047\OPT\ProcedureUnspecified\BasisUnspecified\286(1-,2)\TueSep623:07:042016TueSep623:07:042016\0\\#,OPT,ProcedureUnspecified,BasisUnspecified,\\-1,2\S\C,1,1.76157\H,2,1.08137,1,120.606\C,2,1.38499,1,110.583,3,174.617,0\H,4,1.08756,2,122.584,1,-177.586,0\C,4,1.41147,2,114.379,1,-0.982291,0\H,6,1.08554,4,123.921,2,-175.357,0\C,6,1.4082,4,114.693,2,2.68699,0\C,8,1.42346,6,130.447,4,-166.352,0\C,9,1.4082,8,130.447,6,110,0\H,10,1.08554,9,121.357,8,11.7477,0\C,10,1.41147,9,114.693,8,-166.352,0\H,12,1.08756,10,122.945,9,179.277,0\C,12,1.38499,10,114.379,9,2.68699,0\H,14,1.08137,12,128.55,10,173.091,0\S,14,1.76157,12,110.583,10,-0.982291,0\\\@

 Total job time:  200.94s(wall), 221.71s(cpu) 
 Tue Sep  6 23:07:04 2016

        *************************************************************
        *                                                           *
        *  Thank you very much for using Q-Chem.  Have a nice day.  *
        *                                                           *
        *************************************************************


0 sent ACK to 0 
now end server 0 ... 
