srun -N 1 --ntasks-per-node 16 --nodelist nid01047 /global/project/projectdirs/jcesr/qchem/qc44/cnl_qc441/dist/exe/qcprog.cori.exe .pt_charged_dft_90.0.in.30105.qcin.1 /dev/shm/eg_qchem/qchem30105/
Process 0 of 16 is on nid01047 - thread support 0
Process 1 of 16 is on nid01047 - thread support 0
Process 2 of 16 is on nid01047 - thread support 0
Process 3 of 16 is on nid01047 - thread support 0
Process 4 of 16 is on nid01047 - thread support 0
Process 5 of 16 is on nid01047 - thread support 0
Process 6 of 16 is on nid01047 - thread support 0
initial socket setup ...start
Process 15 of 16 is on nid01047 - thread support 0
initial socket setup ...done 
now start server 0 ... 
nid01047 10.128.4
Q-Chem Developer Version! Running on 10.128.4.*
                  Welcome to Q-Chem
     A Quantum Leap Into The Future Of Chemistry


 Q-Chem 4.4, Q-Chem, Inc., Pleasanton, CA (2016)

 Y. Shao,  Z. Gan,  E. Epifanovsky,  A. T. B. Gilbert,  M. Wormit,  
 J. Kussmann,  A. W. Lange,  A. Behn,  J. Deng,  X. Feng,  D. Ghosh,  
 M. Goldey,  P. R. Horn,  L. D. Jacobson,  I. Kaliman,  F.Rob,  
 R. Z. Khaliullin,  T. Kus,  A. Landau,  J. Liu,  E. I. Proynov,  Y. M. Rhee,  
 R. M. Richard,  M. A. Rohrdanz,  R. P. Steele,  E. J. Sundstrom,  
 H. L. Woodcock III,  P. M. Zimmerman,  D. Zuev,  B. Albrecht,  E. Alguire,  
 B. Austin,  S. A. Baeppler,  G. J. O. Beran,  Y. A. Bernard,  E. Berquist,  
 K. Brandhorst,  K. B. Bravaya,  S. T. Brown,  D. Casanova,  C.-M. Chang,  
 Y. Chen,  S. H. Chien,  K. D. Closser,  M. P. Coons,  D. L. Crittenden,  
 S. Dasgupta,  M. Diedenhofen,  R. A. DiStasio Jr.,  H. Do,  A. D. Dutoi,  
 R. G. Edgar,  P.-T. Fang,  S. Fatehi,  Q. Feng,  L. Fusti-Molnar,  
 A. Ghysels,  A. Golubeva-Zadorozhnaya,  J. Gomes,  A. Gunina,  
 M. W. D. Hanson-Heine,  P. H. P. Harbach,  A. W. Hauser,  E. G. Hohenstein,  
 Z. C. Holden,  K. Hui,  T.-C. Jagau,  H. Ji,  B. Kaduk,  K. Khistyaev,  
 Jaehoon Kim,  Jihan Kim,  R. A. King,  P. Klunzinger,  D. Kosenkov,  
 T. Kowalczyk,  C. M. Krauter,  A. Kunitsa,  K. U. Lao,  A. Laurent,  
 K. V. Lawler,  D. Lefrancois,  S. Lehtola,  S. V. Levchenko,  C. Y. Lin,  
 Y.-S. Lin,  F. Liu,  E. Livshits,  R. C. Lochan,  A. Luenser,  P. Manohar,  
 S. F. Manzer,  S.-P. Mao,  Y. Mao,  N. Mardirossian,  A. V. Marenich,  
 L. A. Martinez-Martinez,  S. A. Maurer,  N. J. Mayhall,  J.-M. Mewes,  
 A. F. Morrison,  K. Nanda,  C. M. Oana,  R. Olivares-Amaya,  D. P. O'Neill,  
 J. A. Parkhill,  T. M. Perrine,  R. Peverati,  P. A. Pieniazek,  F. Plasser,  
 A. Prociuk,  D. R. Rehn,  E. Rosta,  N. J. Russ,  N. Sergueev,  
 S. M. Sharada,  S. Sharma,  D. W. Small,  A. Sodt,  T. Stauch,  T. Stein,  
 D. Stuck,  Y.-C. Su,  A. J. W. Thom,  T. Tsuchimochi,  L. Vogt,  O. Vydrov,  
 T. Wang,  M. A. Watson,  J. Wenzel,  A. White,  C. F. Williams,  
 V. Vanovschi,  S. Yeganeh,  S. R. Yost,  Z.-Q. You,  I. Y. Zhang,  X. Zhang,  
 Y. Zhao,  B. R. Brooks,  G. K. L. Chan,  D. M. Chipman,  C. J. Cramer,  
 W. A. Goddard III,  M. S. Gordon,  W. J. Hehre,  A. Klamt,  
 H. F. Schaefer III,  M. W. Schmidt,  C. D. Sherrill,  D. G. Truhlar,  
 A. Warshel,  X. Xu,  A. Aspuru-Guzik,  R. Baer,  A. T. Bell,  N. A. Besley,  
 J.-D. Chai,  A. Dreuw,  B. D. Dunietz,  T. R. Furlani,  S. R. Gwaltney,  
 C.-P. Hsu,  Y. Jung,  J. Kong,  D. S. Lambrecht,  W. Liang,  C. Ochsenfeld,  
 V. A. Rassolov,  L. V. Slipchenko,  J. E. Subotnik,  T. Van Voorhis,  
 J. M. Herbert,  A. I. Krylov,  P. M. W. Gill,  M. Head-Gordon

 Contributors to earlier versions of Q-Chem not listed above: 
 R. D. Adamson,  J. Baker,  E. F. C. Byrd,  A. K. Chakraborty,  C.-L. Cheng,  
 H. Dachsel,  R. J. Doerksen,  G. Hawkins,  A. Heyden,  S. Hirata,  
 G. Kedziora,  F. J. Keil,  C. Kelley,  P. P. Korambath,  W. Kurlancheek,  
 A. M. Lee,  M. S. Lee,  D. Liotard,  I. Lotan,  P. E. Maslen,  N. Nair,  
 D. Neuhauser,  R. Olson,  B. Peters,  J. Ritchie,  N. E. Schultz,  
 N. Shenvi,  A. C. Simmonett,  K. S. Thanthiriwatte,  Q. Wu,  W. Zhang

 Please cite Q-Chem as follows:
 Y. Shao et al., Mol. Phys. 113, 184-215 (2015)
 DOI: 10.1080/00268976.2014.952696

 Q-Chem 4.4.1 for Intel X86 EM64T Linux

 Parts of Q-Chem use Armadillo 5.200.1 (Boston Tea Smuggler).
 http://arma.sourceforge.net/

 Q-Chem begins on Wed Sep  7 00:11:22 2016  

Host: nid01047
0

     Scratch files written to /dev/shm/eg_qchem/qchem30105.0//
 Parallel job on  16  processors

Checking the input file for inconsistencies... 	...done.

--------------------------------------------------------------
User input:
--------------------------------------------------------------
$comment
<SCF Fix Strategy>{
    "current_method_id": 6, 
    "methods": [
        "increase_iter", 
        "diis_gdm", 
        "gwh", 
        "rca", 
        "gdm", 
        "core+gdm", 
        "fon"
    ], 
    "version": 2.0
}</SCF Fix Strategy>
$end


$molecule
 -1  2
 S           1.83794975       -1.27576249       -0.14871336
 C           3.23937819       -0.19806434       -0.14823333
 C           2.83626844        1.12431397       -0.14890172
 C           1.43724334        1.31134696       -0.14931220
 C           0.69606563        0.10654716       -0.14908151
 H           0.95807640        2.28459073       -0.14860036
 C          -0.69610330       -0.10652413       -0.14907621
 S          -1.60516805       -0.24537598        1.39007968
 C          -1.60046045       -0.24516577       -1.22787353
 C          -3.13556197       -0.48045808        0.53681184
 C          -2.93945526       -0.45035001       -0.83133217
 H          -3.75472191       -0.57522177       -1.54021211
 H           4.24016475       -0.60708034       -0.14954918
 H           3.54430111        1.94981573       -0.14910914
 H          -4.05250735       -0.61923145        1.09253003
 H          -1.27763662       -0.19691765       -2.26240811
$end


$rem
          jobtype = opt
         exchange = b3lyp
            basis = 6-31++g**
     fon_e_thresh = 6
         fon_norb = 9
        fon_t_end = 300
      fon_t_start = 300
   max_scf_cycles = 200
       mem_static = 100
        mem_total = 1500
      occupations = 2
    scf_algorithm = diis
  scf_convergence = 7
        scf_guess = sad
           thresh = 14
$end


$opt
CONSTRAINT
tors 4 5 7 9 90.0
ENDCONSTRAINT
$end

--------------------------------------------------------------
 Atom   8: ( -1.7310465812,  0.9080957450,  0.8265854795)
         ->( -1.7310465792,  0.9080957410,  0.8265854881)
 Atom  10: ( -3.2057908806,  0.1418749697,  0.2237006432)
         ->( -3.2057909080,  0.1418751332,  0.2237004660)
 Atom  11: ( -2.9049148127, -0.7984581835, -0.7439922433)
         ->( -2.9049147997, -0.7984582520, -0.7439921526)
 Atom   9: ( -1.5280716440, -0.9318877053, -1.0246204229)
         ->( -1.5280716345, -0.9318877636, -1.0246203801)
 Atom   7: ( -0.7001375362, -0.0754377588, -0.2617930381)
         ->( -0.7001375412, -0.0754377264, -0.2617930864)
 Atom  16: ( -1.1251022674, -1.6248891691, -1.7554894646)
         ->( -1.1251022500, -1.6248891897, -1.7554894501)
 Atom  14: (  3.6712463239,  1.3851463542, -1.2452870024)
         ->(  3.6712463286,  1.3851461472, -1.2452872436)
 Atom  15: ( -4.1700458447,  0.4342205321,  0.6156394409)
         ->( -4.1700458396,  0.4342204093,  0.6156395235)
 ----------------------------------------------------------------
             Standard Nuclear Orientation (Angstroms)
    I     Atom           X                Y                Z
 ----------------------------------------------------------------
    1      S       1.7310465792    -0.9080957410     0.8265854881
    2      C       3.2057909080    -0.1418751332     0.2237004660
    3      C       2.9049147997     0.7984582520    -0.7439921526
    4      C       1.5280716345     0.9318877636    -1.0246203801
    5      C       0.7001375412     0.0754377264    -0.2617930864
    6      H       1.1251022500     1.6248891897    -1.7554894501
    7      C      -0.7001375412    -0.0754377264    -0.2617930864
    8      S      -1.7310465792     0.9080957410     0.8265854881
    9      C      -1.5280716345    -0.9318877636    -1.0246203801
   10      C      -3.2057909080     0.1418751332     0.2237004660
   11      C      -2.9049147997    -0.7984582520    -0.7439921526
   12      H      -3.6712463286    -1.3851461472    -1.2452872436
   13      H       4.1700458396    -0.4342204093     0.6156395235
   14      H       3.6712463286     1.3851461472    -1.2452872436
   15      H      -4.1700458396     0.4342204093     0.6156395235
   16      H      -1.1251022500    -1.6248891897    -1.7554894501
 ----------------------------------------------------------------
 Molecular Point Group                 C2    NOp =  2
 Largest Abelian Subgroup              C2    NOp =  2
 Nuclear Repulsion Energy =   623.1918699772 hartrees
 There are       44 alpha and       43 beta electrons
 Requested basis set is 6-31++G(d,p)
 There are 76 shells and 234 basis functions

 Total QAlloc Memory Limit   1500 MB
 Mega-Array Size        98 MB
 MEM_STATIC part       100 MB
 A cutoff of  1.0D-14 yielded   2601 shell pairs
 There are     25463 function pairs
 
 -------------------------------------------------------
 OpenMP Integral Computing Module                       
 Release: version 1.0, May 2013, Q-Chem Inc. Pittsburgh 
 -------------------------------------------------------
 Integral Job Info:
 Integral job number is                      11
 Integral operator is                         1
 short-range coefficients                     0
 long-range coefficients              100000000
 Omega coefficients                           0
 if combine SR and LR in K                    0
 Integral screening is                        0
 Integral computing path is                   2
 max size of driver memory is            800000
 size of driver memory is                593474
 size of scratch memory is             15166112
 max col of scratch BK array               1296
 max len of scratch array in speh3          155
 max len of scratch index in speh4           18
 max int batch size is                      520
 min int batch size is                       52
 fixed nKL is                                52
 max L of basis functions is                  2
 order of int derivative is                   0
 number of shells is                         76
 number of basis is                         234
 number of cartesian basis is               234
 number of contracted shell pairs          2601
 number of primitive shell pairs           8581
 maxK2 (contraction) of shell pair           36
 max number of K2 of shell pair               1
 max number of CS2 of shell pair            260
 max number of PS2 of shell pair           1512
 mem total for path MDJ                   51576
 -------------------------------------------------------
 Smallest overlap matrix eigenvalue = 9.37E-07
 Linear dependence detected in AO basis
 Number of orthogonalized atomic orbitals = 233
 Maximum deviation from orthogonality = 2.860E-11

 Scale SEOQF with 1.000000e-01/1.000000e-01/1.000000e-01

 Standard Electronic Orientation quadrupole field applied
 Nucleus-field energy     =     0.0000000132 hartrees
 Guess from superposition of atomic densities
 Warning:  Energy on first SCF cycle will be non-variational

-------------------------------------------------
Fractional occupation number algorithm turned on.
-------------------------------------------------

Initial Temperature =    300.000 K
Final Temperature =    300.000 K
-------------------------------------------------

 An unrestricted hybrid HF-DFT SCF calculation will be
 performed using Pulay DIIS extrapolation
 Exchange:     0.2000 Hartree-Fock + 0.0800 Slater + 0.7200 B88
 Correlation:  0.1900 VWN1RPA + 0.8100 LYP
 Using SG-1 standard quadrature grid
 SCF converges when DIIS error is below 1.0E-07
 Inaccurate integrated density:
   Number of electrons =    87
   Numerical integral  =    85.999914775996
   Relative error      =    -1.1495232460 %

---- Fractional Occupation Number Information ----
Temperature =    300.000 K
Fermi level =  -0.292220 Hartree
HOMO-LUMO gap =   0.000031 Hartree
Number of active orbitals = 18
Number of active electrons = 9
EMax =   4.30e-02
thresh =   1.00e-06
Generating Pseudo-Fermi distribution of occupation numbers.
--
# Rescaled active electrons =      9.000
Writing occupation numbers to disk ...
---- Fractional Occupation Number Information End ----


---- Fractional Occupation Number Information ----
Temperature =    300.000 K
Fermi level =  -0.294187 Hartree
HOMO-LUMO gap =   0.003903 Hartree
Number of active orbitals = 18
Number of active electrons = 9
EMax =   4.30e-02
thresh =   1.00e-06
Generating Pseudo-Fermi distribution of occupation numbers.
--
# Rescaled active electrons =      9.000
Writing occupation numbers to disk ...
---- Fractional Occupation Number Information End ----

 ---------------------------------------
  Cycle       Energy         DIIS Error
 ---------------------------------------
    1   -1106.9962902241      4.30E-02

---- Fractional Occupation Number Information ----
Temperature =    300.000 K
Fermi level =  -0.393579 Hartree
HOMO-LUMO gap =   0.000981 Hartree
Number of active orbitals = 18
Number of active electrons = 9
EMax =   1.48e-01
thresh =   1.00e-06
Generating Pseudo-Fermi distribution of occupation numbers.
--
# Rescaled active electrons =      9.000
Writing occupation numbers to disk ...
---- Fractional Occupation Number Information End ----


---- Fractional Occupation Number Information ----
Temperature =    300.000 K
Fermi level =  -0.409678 Hartree
HOMO-LUMO gap =   0.031880 Hartree
Number of active orbitals = 18
Number of active electrons = 9
EMax =   1.48e-01
thresh =   1.00e-06
Generating Pseudo-Fermi distribution of occupation numbers.
--
# Rescaled active electrons =      9.000
Writing occupation numbers to disk ...
---- Fractional Occupation Number Information End ----

    2   -1118.9248551594      1.48E-01

---- Fractional Occupation Number Information ----
Temperature =    300.000 K
Fermi level =  -0.428002 Hartree
HOMO-LUMO gap =   0.090036 Hartree
Number of active orbitals = 18
Number of active electrons = 9
EMax =   1.43e-01
thresh =   1.00e-06
Generating Pseudo-Fermi distribution of occupation numbers.
--
# Rescaled active electrons =      9.000
Writing occupation numbers to disk ...
---- Fractional Occupation Number Information End ----


---- Fractional Occupation Number Information ----
Temperature =    300.000 K
Fermi level =  -0.470041 Hartree
HOMO-LUMO gap =   0.001184 Hartree
Number of active orbitals = 18
Number of active electrons = 9
EMax =   1.43e-01
thresh =   1.00e-06
Generating Pseudo-Fermi distribution of occupation numbers.
--
# Rescaled active electrons =      9.000
Writing occupation numbers to disk ...
---- Fractional Occupation Number Information End ----

    3   -1127.8147447130      1.43E-01

---- Fractional Occupation Number Information ----
Temperature =    300.000 K
Fermi level =  -0.503424 Hartree
HOMO-LUMO gap =   0.000727 Hartree
Number of active orbitals = 18
Number of active electrons = 9
EMax =   1.12e-01
thresh =   1.00e-06
Generating Pseudo-Fermi distribution of occupation numbers.
--
# Rescaled active electrons =      9.000
Writing occupation numbers to disk ...
---- Fractional Occupation Number Information End ----


---- Fractional Occupation Number Information ----
Temperature =    300.000 K
Fermi level =  -0.509915 Hartree
HOMO-LUMO gap =   0.025029 Hartree
Number of active orbitals = 18
Number of active electrons = 9
EMax =   1.12e-01
thresh =   1.00e-06
Generating Pseudo-Fermi distribution of occupation numbers.
--
# Rescaled active electrons =      9.000
Writing occupation numbers to disk ...
---- Fractional Occupation Number Information End ----

    4   -1171.3282739204      1.12E-01

---- Fractional Occupation Number Information ----
Temperature =    300.000 K
Fermi level =  -0.501781 Hartree
HOMO-LUMO gap =   0.000699 Hartree
Number of active orbitals = 18
Number of active electrons = 9
EMax =   3.02e-01
thresh =   1.00e-06
Generating Pseudo-Fermi distribution of occupation numbers.
--
# Rescaled active electrons =      9.000
Writing occupation numbers to disk ...
---- Fractional Occupation Number Information End ----


---- Fractional Occupation Number Information ----
Temperature =    300.000 K
Fermi level =  -0.508416 Hartree
HOMO-LUMO gap =   0.025245 Hartree
Number of active orbitals = 18
Number of active electrons = 9
EMax =   3.02e-01
thresh =   1.00e-06
Generating Pseudo-Fermi distribution of occupation numbers.
--
# Rescaled active electrons =      9.000
Writing occupation numbers to disk ...
---- Fractional Occupation Number Information End ----

    5   -1047.3442722999      3.02E-01

---- Fractional Occupation Number Information ----
Temperature =    300.000 K
Fermi level =  -0.505632 Hartree
HOMO-LUMO gap =   0.000259 Hartree
Number of active orbitals = 18
Number of active electrons = 9
EMax =   2.98e-01
thresh =   1.00e-06
Generating Pseudo-Fermi distribution of occupation numbers.
--
# Rescaled active electrons =      9.000
Writing occupation numbers to disk ...
---- Fractional Occupation Number Information End ----


---- Fractional Occupation Number Information ----
Temperature =    300.000 K
Fermi level =  -0.512011 Hartree
HOMO-LUMO gap =   0.026242 Hartree
Number of active orbitals = 18
Number of active electrons = 9
EMax =   2.98e-01
thresh =   1.00e-06
Generating Pseudo-Fermi distribution of occupation numbers.
--
# Rescaled active electrons =      9.000
Writing occupation numbers to disk ...
---- Fractional Occupation Number Information End ----

    6   -1048.5034690879      2.98E-01

---- Fractional Occupation Number Information ----
Temperature =    300.000 K
Fermi level =  -0.521092 Hartree
HOMO-LUMO gap =   0.000272 Hartree
Number of active orbitals = 18
Number of active electrons = 9
EMax =   3.79e-01
thresh =   1.00e-06
Generating Pseudo-Fermi distribution of occupation numbers.
--
# Rescaled active electrons =      9.000
Writing occupation numbers to disk ...
---- Fractional Occupation Number Information End ----


---- Fractional Occupation Number Information ----
Temperature =    300.000 K
Fermi level =  -0.525609 Hartree
HOMO-LUMO gap =   0.022867 Hartree
Number of active orbitals = 18
Number of active electrons = 9
EMax =   3.79e-01
thresh =   1.00e-06
Generating Pseudo-Fermi distribution of occupation numbers.
--
# Rescaled active electrons =      9.000
Writing occupation numbers to disk ...
---- Fractional Occupation Number Information End ----

    7    -997.1276637075      3.79E-01

---- Fractional Occupation Number Information ----
Temperature =    300.000 K
Fermi level =  -0.698258 Hartree
HOMO-LUMO gap =   0.104313 Hartree
Number of active orbitals = 18
Number of active electrons = 9
EMax =   2.16e-01
thresh =   1.00e-06
Generating Pseudo-Fermi distribution of occupation numbers.
--
# Rescaled active electrons =      9.000
Writing occupation numbers to disk ...
---- Fractional Occupation Number Information End ----


---- Fractional Occupation Number Information ----
Temperature =    300.000 K
Fermi level =  -0.730183 Hartree
HOMO-LUMO gap =   0.003612 Hartree
Number of active orbitals = 18
Number of active electrons = 9
EMax =   2.16e-01
thresh =   1.00e-06
Generating Pseudo-Fermi distribution of occupation numbers.
--
# Rescaled active electrons =      9.000
Writing occupation numbers to disk ...
---- Fractional Occupation Number Information End ----

    8   -1063.1382684858      2.16E-01

---- Fractional Occupation Number Information ----
Temperature =    300.000 K
Fermi level =  -0.712069 Hartree
HOMO-LUMO gap =   0.106743 Hartree
Number of active orbitals = 18
Number of active electrons = 9
EMax =   1.68e-01
thresh =   1.00e-06
Generating Pseudo-Fermi distribution of occupation numbers.
--
# Rescaled active electrons =      9.000
Writing occupation numbers to disk ...
---- Fractional Occupation Number Information End ----


---- Fractional Occupation Number Information ----
Temperature =    300.000 K
Fermi level =  -0.743432 Hartree
HOMO-LUMO gap =   0.004537 Hartree
Number of active orbitals = 18
Number of active electrons = 9
EMax =   1.68e-01
thresh =   1.00e-06
Generating Pseudo-Fermi distribution of occupation numbers.
--
# Rescaled active electrons =      9.000
Writing occupation numbers to disk ...
---- Fractional Occupation Number Information End ----

    9   -1222.5000114541      1.68E-01

---- Fractional Occupation Number Information ----
Temperature =    300.000 K
Fermi level =  -0.721774 Hartree
HOMO-LUMO gap =   0.107246 Hartree
Number of active orbitals = 18
Number of active electrons = 9
EMax =   2.48e-01
thresh =   1.00e-06
Generating Pseudo-Fermi distribution of occupation numbers.
--
# Rescaled active electrons =      9.000
Writing occupation numbers to disk ...
---- Fractional Occupation Number Information End ----


---- Fractional Occupation Number Information ----
Temperature =    300.000 K
Fermi level =  -0.752795 Hartree
HOMO-LUMO gap =   0.004613 Hartree
Number of active orbitals = 18
Number of active electrons = 9
EMax =   2.48e-01
thresh =   1.00e-06
Generating Pseudo-Fermi distribution of occupation numbers.
--
# Rescaled active electrons =      9.000
Writing occupation numbers to disk ...
---- Fractional Occupation Number Information End ----

   10   -1230.3912193984      2.48E-01

---- Fractional Occupation Number Information ----
Temperature =    300.000 K
Fermi level =  -0.719880 Hartree
HOMO-LUMO gap =   0.108967 Hartree
Number of active orbitals = 18
Number of active electrons = 9
EMax =   3.44e-01
thresh =   1.00e-06
Generating Pseudo-Fermi distribution of occupation numbers.
--
# Rescaled active electrons =      9.000
Writing occupation numbers to disk ...
---- Fractional Occupation Number Information End ----


---- Fractional Occupation Number Information ----
Temperature =    300.000 K
Fermi level =  -0.750473 Hartree
HOMO-LUMO gap =   0.006028 Hartree
Number of active orbitals = 18
Number of active electrons = 9
EMax =   3.44e-01
thresh =   1.00e-06
Generating Pseudo-Fermi distribution of occupation numbers.
--
# Rescaled active electrons =      9.000
Writing occupation numbers to disk ...
---- Fractional Occupation Number Information End ----

   11   -1236.5096716212      3.44E-01

---- Fractional Occupation Number Information ----
Temperature =    300.000 K
Fermi level =  -0.720707 Hartree
HOMO-LUMO gap =   0.109644 Hartree
Number of active orbitals = 18
Number of active electrons = 9
EMax =   3.85e-01
thresh =   1.00e-06
Generating Pseudo-Fermi distribution of occupation numbers.
--
# Rescaled active electrons =      9.000
Writing occupation numbers to disk ...
---- Fractional Occupation Number Information End ----


---- Fractional Occupation Number Information ----
Temperature =    300.000 K
Fermi level =  -0.751300 Hartree
HOMO-LUMO gap =   0.006241 Hartree
Number of active orbitals = 18
Number of active electrons = 9
EMax =   3.85e-01
thresh =   1.00e-06
Generating Pseudo-Fermi distribution of occupation numbers.
--
# Rescaled active electrons =      9.000
Writing occupation numbers to disk ...
---- Fractional Occupation Number Information End ----

   12   -1260.5124150892      3.85E-01

---- Fractional Occupation Number Information ----
Temperature =    300.000 K
Fermi level =  -0.798494 Hartree
HOMO-LUMO gap =   0.003104 Hartree
Number of active orbitals = 18
Number of active electrons = 9
EMax =   3.73e-01
thresh =   1.00e-06
Generating Pseudo-Fermi distribution of occupation numbers.
--
# Rescaled active electrons =      9.000
Writing occupation numbers to disk ...
---- Fractional Occupation Number Information End ----


---- Fractional Occupation Number Information ----
Temperature =    300.000 K
Fermi level =  -0.791007 Hartree
HOMO-LUMO gap =   0.033482 Hartree
Number of active orbitals = 18
Number of active electrons = 9
EMax =   3.73e-01
thresh =   1.00e-06
Generating Pseudo-Fermi distribution of occupation numbers.
--
# Rescaled active electrons =      9.000
Writing occupation numbers to disk ...
---- Fractional Occupation Number Information End ----

   13   -1271.0936103517      3.73E-01

---- Fractional Occupation Number Information ----
Temperature =    300.000 K
Fermi level =  -0.996361 Hartree
HOMO-LUMO gap =   0.036341 Hartree
Number of active orbitals = 18
Number of active electrons = 9
EMax =   6.50e-02
thresh =   1.00e-06
Generating Pseudo-Fermi distribution of occupation numbers.
--
# Rescaled active electrons =      9.000
Writing occupation numbers to disk ...
---- Fractional Occupation Number Information End ----


---- Fractional Occupation Number Information ----
Temperature =    300.000 K
Fermi level =  -0.991975 Hartree
HOMO-LUMO gap =   0.000613 Hartree
Number of active orbitals = 18
Number of active electrons = 9
EMax =   6.50e-02
thresh =   1.00e-06
Generating Pseudo-Fermi distribution of occupation numbers.
--
# Rescaled active electrons =      9.000
Writing occupation numbers to disk ...
---- Fractional Occupation Number Information End ----

   14   -1082.7149082541      6.50E-02

---- Fractional Occupation Number Information ----
Temperature =    300.000 K
Fermi level =  -0.987764 Hartree
HOMO-LUMO gap =   0.078371 Hartree
Number of active orbitals = 18
Number of active electrons = 9
EMax =   9.17e-02
thresh =   1.00e-06
Generating Pseudo-Fermi distribution of occupation numbers.
--
# Rescaled active electrons =      9.000
Writing occupation numbers to disk ...
---- Fractional Occupation Number Information End ----


---- Fractional Occupation Number Information ----
Temperature =    300.000 K
Fermi level =  -0.993647 Hartree
HOMO-LUMO gap =   0.001023 Hartree
Number of active orbitals = 18
Number of active electrons = 9
EMax =   9.17e-02
thresh =   1.00e-06
Generating Pseudo-Fermi distribution of occupation numbers.
--
# Rescaled active electrons =      9.000
Writing occupation numbers to disk ...
---- Fractional Occupation Number Information End ----

   15   -1151.8344596392      9.17E-02

---- Fractional Occupation Number Information ----
Temperature =    300.000 K
Fermi level =  -1.045821 Hartree
HOMO-LUMO gap =   0.064607 Hartree
Number of active orbitals = 18
Number of active electrons = 9
EMax =   2.22e-01
thresh =   1.00e-06
Generating Pseudo-Fermi distribution of occupation numbers.
--
# Rescaled active electrons =      9.000
Writing occupation numbers to disk ...
---- Fractional Occupation Number Information End ----


---- Fractional Occupation Number Information ----
Temperature =    300.000 K
Fermi level =  -1.044206 Hartree
HOMO-LUMO gap =   0.000988 Hartree
Number of active orbitals = 18
Number of active electrons = 9
EMax =   2.22e-01
thresh =   1.00e-06
Generating Pseudo-Fermi distribution of occupation numbers.
--
# Rescaled active electrons =      9.000
Writing occupation numbers to disk ...
---- Fractional Occupation Number Information End ----

   16   -1256.0858892104      2.22E-01

---- Fractional Occupation Number Information ----
Temperature =    300.000 K
Fermi level =  -1.037824 Hartree
HOMO-LUMO gap =   0.099684 Hartree
Number of active orbitals = 18
Number of active electrons = 9
EMax =   2.12e-01
thresh =   1.00e-06
Generating Pseudo-Fermi distribution of occupation numbers.
--
# Rescaled active electrons =      9.000
Writing occupation numbers to disk ...
---- Fractional Occupation Number Information End ----


---- Fractional Occupation Number Information ----
Temperature =    300.000 K
Fermi level =  -1.046666 Hartree
HOMO-LUMO gap =   0.001239 Hartree
Number of active orbitals = 18
Number of active electrons = 9
EMax =   2.12e-01
thresh =   1.00e-06
Generating Pseudo-Fermi distribution of occupation numbers.
--
# Rescaled active electrons =      9.000
Writing occupation numbers to disk ...
---- Fractional Occupation Number Information End ----

   17   -1258.3806055034      2.12E-01

---- Fractional Occupation Number Information ----
Temperature =    300.000 K
Fermi level =  -0.995323 Hartree
HOMO-LUMO gap =   0.012122 Hartree
Number of active orbitals = 18
Number of active electrons = 9
EMax =   2.63e-01
thresh =   1.00e-06
Generating Pseudo-Fermi distribution of occupation numbers.
--
# Rescaled active electrons =      9.000
Writing occupation numbers to disk ...
---- Fractional Occupation Number Information End ----


---- Fractional Occupation Number Information ----
Temperature =    300.000 K
Fermi level =  -1.019780 Hartree
HOMO-LUMO gap =   0.065312 Hartree
Number of active orbitals = 18
Number of active electrons = 9
EMax =   2.63e-01
thresh =   1.00e-06
Generating Pseudo-Fermi distribution of occupation numbers.
--
# Rescaled active electrons =      9.000
Writing occupation numbers to disk ...
---- Fractional Occupation Number Information End ----

   18   -1235.3779189894      2.63E-01

---- Fractional Occupation Number Information ----
Temperature =    300.000 K
Fermi level =  -1.005642 Hartree
HOMO-LUMO gap =   0.005342 Hartree
Number of active orbitals = 18
Number of active electrons = 9
EMax =   1.02e-01
thresh =   1.00e-06
Generating Pseudo-Fermi distribution of occupation numbers.
--
# Rescaled active electrons =      9.000
Writing occupation numbers to disk ...
---- Fractional Occupation Number Information End ----


---- Fractional Occupation Number Information ----
Temperature =    300.000 K
Fermi level =  -1.025023 Hartree
HOMO-LUMO gap =   0.038742 Hartree
Number of active orbitals = 18
Number of active electrons = 9
EMax =   1.02e-01
thresh =   1.00e-06
Generating Pseudo-Fermi distribution of occupation numbers.
--
# Rescaled active electrons =      9.000
Writing occupation numbers to disk ...
---- Fractional Occupation Number Information End ----

   19   -1061.4545985697      1.02E-01

---- Fractional Occupation Number Information ----
Temperature =    300.000 K
Fermi level =  -0.816232 Hartree
HOMO-LUMO gap =   0.010432 Hartree
Number of active orbitals = 18
Number of active electrons = 9
EMax =   3.68e-02
thresh =   1.00e-06
Generating Pseudo-Fermi distribution of occupation numbers.
--
# Rescaled active electrons =      9.000
Writing occupation numbers to disk ...
---- Fractional Occupation Number Information End ----


---- Fractional Occupation Number Information ----
Temperature =    300.000 K
Fermi level =  -0.825158 Hartree
HOMO-LUMO gap =   0.036499 Hartree
Number of active orbitals = 18
Number of active electrons = 9
EMax =   3.68e-02
thresh =   1.00e-06
Generating Pseudo-Fermi distribution of occupation numbers.
--
# Rescaled active electrons =      9.000
Writing occupation numbers to disk ...
---- Fractional Occupation Number Information End ----

   20   -1077.8326950763      3.68E-02

---- Fractional Occupation Number Information ----
Temperature =    300.000 K
Fermi level =  -0.736281 Hartree
HOMO-LUMO gap =   0.004455 Hartree
Number of active orbitals = 18
Number of active electrons = 9
EMax =   3.28e-02
thresh =   1.00e-06
Generating Pseudo-Fermi distribution of occupation numbers.
--
# Rescaled active electrons =      9.000
Writing occupation numbers to disk ...
---- Fractional Occupation Number Information End ----


---- Fractional Occupation Number Information ----
Temperature =    300.000 K
Fermi level =  -0.728524 Hartree
HOMO-LUMO gap =   0.000105 Hartree
Number of active orbitals = 18
Number of active electrons = 9
EMax =   3.28e-02
thresh =   1.00e-06
Generating Pseudo-Fermi distribution of occupation numbers.
--
# Rescaled active electrons =      9.000
Writing occupation numbers to disk ...
---- Fractional Occupation Number Information End ----

   21   -1099.4119856912      3.28E-02

---- Fractional Occupation Number Information ----
Temperature =    300.000 K
Fermi level =  -0.648302 Hartree
HOMO-LUMO gap =   0.008303 Hartree
Number of active orbitals = 18
Number of active electrons = 9
EMax =   5.03e-02
thresh =   1.00e-06
Generating Pseudo-Fermi distribution of occupation numbers.
--
# Rescaled active electrons =      9.000
Writing occupation numbers to disk ...
---- Fractional Occupation Number Information End ----


---- Fractional Occupation Number Information ----
Temperature =    300.000 K
Fermi level =  -0.632270 Hartree
HOMO-LUMO gap =   0.014684 Hartree
Number of active orbitals = 18
Number of active electrons = 9
EMax =   5.03e-02
thresh =   1.00e-06
Generating Pseudo-Fermi distribution of occupation numbers.
--
# Rescaled active electrons =      9.000
Writing occupation numbers to disk ...
---- Fractional Occupation Number Information End ----

   22   -1111.3854846366      5.03E-02

---- Fractional Occupation Number Information ----
Temperature =    300.000 K
Fermi level =  -0.341408 Hartree
HOMO-LUMO gap =   0.020881 Hartree
Number of active orbitals = 18
Number of active electrons = 9
EMax =   9.48e-03
thresh =   1.00e-06
Generating Pseudo-Fermi distribution of occupation numbers.
--
# Rescaled active electrons =      9.000
Writing occupation numbers to disk ...
---- Fractional Occupation Number Information End ----


---- Fractional Occupation Number Information ----
Temperature =    300.000 K
Fermi level =  -0.362717 Hartree
HOMO-LUMO gap =   0.002665 Hartree
Number of active orbitals = 18
Number of active electrons = 9
EMax =   9.48e-03
thresh =   1.00e-06
Generating Pseudo-Fermi distribution of occupation numbers.
--
# Rescaled active electrons =      9.000
Writing occupation numbers to disk ...
---- Fractional Occupation Number Information End ----

   23   -1099.8717189062      9.48E-03

---- Fractional Occupation Number Information ----
Temperature =    300.000 K
Fermi level =  -0.316537 Hartree
HOMO-LUMO gap =   0.031286 Hartree
Number of active orbitals = 18
Number of active electrons = 9
EMax =   1.19e-02
thresh =   1.00e-06
Generating Pseudo-Fermi distribution of occupation numbers.
--
# Rescaled active electrons =      9.000
Writing occupation numbers to disk ...
---- Fractional Occupation Number Information End ----


---- Fractional Occupation Number Information ----
Temperature =    300.000 K
Fermi level =  -0.318064 Hartree
HOMO-LUMO gap =   0.025910 Hartree
Number of active orbitals = 18
Number of active electrons = 9
EMax =   1.19e-02
thresh =   1.00e-06
Generating Pseudo-Fermi distribution of occupation numbers.
--
# Rescaled active electrons =      9.000
Writing occupation numbers to disk ...
---- Fractional Occupation Number Information End ----

   24   -1101.1323483034      1.19E-02

---- Fractional Occupation Number Information ----
Temperature =    300.000 K
Fermi level =  -0.334411 Hartree
HOMO-LUMO gap =   0.025586 Hartree
Number of active orbitals = 18
Number of active electrons = 9
EMax =   6.87e-03
thresh =   1.00e-06
Generating Pseudo-Fermi distribution of occupation numbers.
--
# Rescaled active electrons =      9.000
Writing occupation numbers to disk ...
---- Fractional Occupation Number Information End ----


---- Fractional Occupation Number Information ----
Temperature =    300.000 K
Fermi level =  -0.335925 Hartree
HOMO-LUMO gap =   0.006678 Hartree
Number of active orbitals = 18
Number of active electrons = 9
EMax =   6.87e-03
thresh =   1.00e-06
Generating Pseudo-Fermi distribution of occupation numbers.
--
# Rescaled active electrons =      9.000
Writing occupation numbers to disk ...
---- Fractional Occupation Number Information End ----

   25   -1101.8958287391      6.87E-03

---- Fractional Occupation Number Information ----
Temperature =    300.000 K
Fermi level =  -0.402338 Hartree
HOMO-LUMO gap =   0.027664 Hartree
Number of active orbitals = 18
Number of active electrons = 9
EMax =   3.30e-02
thresh =   1.00e-06
Generating Pseudo-Fermi distribution of occupation numbers.
--
# Rescaled active electrons =      9.000
Writing occupation numbers to disk ...
---- Fractional Occupation Number Information End ----


---- Fractional Occupation Number Information ----
Temperature =    300.000 K
Fermi level =  -0.373095 Hartree
HOMO-LUMO gap =   0.029949 Hartree
Number of active orbitals = 18
Number of active electrons = 9
EMax =   3.30e-02
thresh =   1.00e-06
Generating Pseudo-Fermi distribution of occupation numbers.
--
# Rescaled active electrons =      9.000
Writing occupation numbers to disk ...
---- Fractional Occupation Number Information End ----

   26   -1109.7882117984      3.30E-02

---- Fractional Occupation Number Information ----
Temperature =    300.000 K
Fermi level =  -0.392953 Hartree
HOMO-LUMO gap =   0.044765 Hartree
Number of active orbitals = 18
Number of active electrons = 9
EMax =   3.72e-02
thresh =   1.00e-06
Generating Pseudo-Fermi distribution of occupation numbers.
--
# Rescaled active electrons =      9.000
Writing occupation numbers to disk ...
---- Fractional Occupation Number Information End ----


---- Fractional Occupation Number Information ----
Temperature =    300.000 K
Fermi level =  -0.364956 Hartree
HOMO-LUMO gap =   0.036670 Hartree
Number of active orbitals = 18
Number of active electrons = 9
EMax =   3.72e-02
thresh =   1.00e-06
Generating Pseudo-Fermi distribution of occupation numbers.
--
# Rescaled active electrons =      9.000
Writing occupation numbers to disk ...
---- Fractional Occupation Number Information End ----

   27   -1101.3772686290      3.72E-02

---- Fractional Occupation Number Information ----
Temperature =    300.000 K
Fermi level =  -0.396570 Hartree
HOMO-LUMO gap =   0.042273 Hartree
Number of active orbitals = 18
Number of active electrons = 9
EMax =   3.25e-02
thresh =   1.00e-06
Generating Pseudo-Fermi distribution of occupation numbers.
--
# Rescaled active electrons =      9.000
Writing occupation numbers to disk ...
---- Fractional Occupation Number Information End ----


---- Fractional Occupation Number Information ----
Temperature =    300.000 K
Fermi level =  -0.370090 Hartree
HOMO-LUMO gap =   0.036088 Hartree
Number of active orbitals = 18
Number of active electrons = 9
EMax =   3.25e-02
thresh =   1.00e-06
Generating Pseudo-Fermi distribution of occupation numbers.
--
# Rescaled active electrons =      9.000
Writing occupation numbers to disk ...
---- Fractional Occupation Number Information End ----

   28   -1102.6473193895      3.25E-02

---- Fractional Occupation Number Information ----
Temperature =    300.000 K
Fermi level =  -0.404155 Hartree
HOMO-LUMO gap =   0.045358 Hartree
Number of active orbitals = 18
Number of active electrons = 9
EMax =   3.15e-02
thresh =   1.00e-06
Generating Pseudo-Fermi distribution of occupation numbers.
--
# Rescaled active electrons =      9.000
Writing occupation numbers to disk ...
---- Fractional Occupation Number Information End ----


---- Fractional Occupation Number Information ----
Temperature =    300.000 K
Fermi level =  -0.376410 Hartree
HOMO-LUMO gap =   0.036021 Hartree
Number of active orbitals = 18
Number of active electrons = 9
EMax =   3.15e-02
thresh =   1.00e-06
Generating Pseudo-Fermi distribution of occupation numbers.
--
# Rescaled active electrons =      9.000
Writing occupation numbers to disk ...
---- Fractional Occupation Number Information End ----

   29   -1102.6813097680      3.15E-02

---- Fractional Occupation Number Information ----
Temperature =    300.000 K
Fermi level =  -0.357271 Hartree
HOMO-LUMO gap =   0.026019 Hartree
Number of active orbitals = 18
Number of active electrons = 9
EMax =   3.35e-02
thresh =   1.00e-06
Generating Pseudo-Fermi distribution of occupation numbers.
--
# Rescaled active electrons =      9.000
Writing occupation numbers to disk ...
---- Fractional Occupation Number Information End ----


---- Fractional Occupation Number Information ----
Temperature =    300.000 K
Fermi level =  -0.366871 Hartree
HOMO-LUMO gap =   0.033480 Hartree
Number of active orbitals = 18
Number of active electrons = 9
EMax =   3.35e-02
thresh =   1.00e-06
Generating Pseudo-Fermi distribution of occupation numbers.
--
# Rescaled active electrons =      9.000
Writing occupation numbers to disk ...
---- Fractional Occupation Number Information End ----

   30   -1102.1940003945      3.35E-02

---- Fractional Occupation Number Information ----
Temperature =    300.000 K
Fermi level =  -0.346731 Hartree
HOMO-LUMO gap =   0.030391 Hartree
Number of active orbitals = 18
Number of active electrons = 9
EMax =   1.48e-02
thresh =   1.00e-06
Generating Pseudo-Fermi distribution of occupation numbers.
--
# Rescaled active electrons =      9.000
Writing occupation numbers to disk ...
---- Fractional Occupation Number Information End ----


---- Fractional Occupation Number Information ----
Temperature =    300.000 K
Fermi level =  -0.357503 Hartree
HOMO-LUMO gap =   0.038445 Hartree
Number of active orbitals = 18
Number of active electrons = 9
EMax =   1.48e-02
thresh =   1.00e-06
Generating Pseudo-Fermi distribution of occupation numbers.
--
# Rescaled active electrons =      9.000
Writing occupation numbers to disk ...
---- Fractional Occupation Number Information End ----

   31   -1102.6842344539      1.48E-02

---- Fractional Occupation Number Information ----
Temperature =    300.000 K
Fermi level =  -0.355544 Hartree
HOMO-LUMO gap =   0.028978 Hartree
Number of active orbitals = 18
Number of active electrons = 9
EMax =   8.38e-03
thresh =   1.00e-06
Generating Pseudo-Fermi distribution of occupation numbers.
--
# Rescaled active electrons =      9.000
Writing occupation numbers to disk ...
---- Fractional Occupation Number Information End ----


---- Fractional Occupation Number Information ----
Temperature =    300.000 K
Fermi level =  -0.364168 Hartree
HOMO-LUMO gap =   0.050417 Hartree
Number of active orbitals = 18
Number of active electrons = 9
EMax =   8.38e-03
thresh =   1.00e-06
Generating Pseudo-Fermi distribution of occupation numbers.
--
# Rescaled active electrons =      9.000
Writing occupation numbers to disk ...
---- Fractional Occupation Number Information End ----

   32   -1103.1800168631      8.38E-03

---- Fractional Occupation Number Information ----
Temperature =    300.000 K
Fermi level =  -0.351275 Hartree
HOMO-LUMO gap =   0.027337 Hartree
Number of active orbitals = 18
Number of active electrons = 9
EMax =   6.08e-03
thresh =   1.00e-06
Generating Pseudo-Fermi distribution of occupation numbers.
--
# Rescaled active electrons =      9.000
Writing occupation numbers to disk ...
---- Fractional Occupation Number Information End ----


---- Fractional Occupation Number Information ----
Temperature =    300.000 K
Fermi level =  -0.338483 Hartree
HOMO-LUMO gap =   0.002870 Hartree
Number of active orbitals = 18
Number of active electrons = 9
EMax =   6.08e-03
thresh =   1.00e-06
Generating Pseudo-Fermi distribution of occupation numbers.
--
# Rescaled active electrons =      9.000
Writing occupation numbers to disk ...
---- Fractional Occupation Number Information End ----

   33   -1103.2777599584      6.08E-03

---- Fractional Occupation Number Information ----
Temperature =    300.000 K
Fermi level =  -0.312943 Hartree
HOMO-LUMO gap =   0.032778 Hartree
Number of active orbitals = 18
Number of active electrons = 9
EMax =   1.39e-02
thresh =   1.00e-06
Generating Pseudo-Fermi distribution of occupation numbers.
--
# Rescaled active electrons =      9.000
Writing occupation numbers to disk ...
---- Fractional Occupation Number Information End ----


---- Fractional Occupation Number Information ----
Temperature =    300.000 K
Fermi level =  -0.325583 Hartree
HOMO-LUMO gap =   0.053690 Hartree
Number of active orbitals = 18
Number of active electrons = 9
EMax =   1.39e-02
thresh =   1.00e-06
Generating Pseudo-Fermi distribution of occupation numbers.
--
# Rescaled active electrons =      9.000
Writing occupation numbers to disk ...
---- Fractional Occupation Number Information End ----

   34   -1107.9450571369      1.39E-02

---- Fractional Occupation Number Information ----
Temperature =    300.000 K
Fermi level =  -0.314676 Hartree
HOMO-LUMO gap =   0.031676 Hartree
Number of active orbitals = 18
Number of active electrons = 9
EMax =   9.86e-03
thresh =   1.00e-06
Generating Pseudo-Fermi distribution of occupation numbers.
--
# Rescaled active electrons =      9.000
Writing occupation numbers to disk ...
---- Fractional Occupation Number Information End ----


---- Fractional Occupation Number Information ----
Temperature =    300.000 K
Fermi level =  -0.330000 Hartree
HOMO-LUMO gap =   0.051876 Hartree
Number of active orbitals = 18
Number of active electrons = 9
EMax =   9.86e-03
thresh =   1.00e-06
Generating Pseudo-Fermi distribution of occupation numbers.
--
# Rescaled active electrons =      9.000
Writing occupation numbers to disk ...
---- Fractional Occupation Number Information End ----

   35   -1102.8485986315      9.86E-03

---- Fractional Occupation Number Information ----
Temperature =    300.000 K
Fermi level =  -0.320022 Hartree
HOMO-LUMO gap =   0.031198 Hartree
Number of active orbitals = 18
Number of active electrons = 9
EMax =   7.61e-03
thresh =   1.00e-06
Generating Pseudo-Fermi distribution of occupation numbers.
--
# Rescaled active electrons =      9.000
Writing occupation numbers to disk ...
---- Fractional Occupation Number Information End ----


---- Fractional Occupation Number Information ----
Temperature =    300.000 K
Fermi level =  -0.335667 Hartree
HOMO-LUMO gap =   0.051203 Hartree
Number of active orbitals = 18
Number of active electrons = 9
EMax =   7.61e-03
thresh =   1.00e-06
Generating Pseudo-Fermi distribution of occupation numbers.
--
# Rescaled active electrons =      9.000
Writing occupation numbers to disk ...
---- Fractional Occupation Number Information End ----

   36   -1102.9146535867      7.61E-03

---- Fractional Occupation Number Information ----
Temperature =    300.000 K
Fermi level =  -0.320660 Hartree
HOMO-LUMO gap =   0.031201 Hartree
Number of active orbitals = 18
Number of active electrons = 9
EMax =   8.45e-03
thresh =   1.00e-06
Generating Pseudo-Fermi distribution of occupation numbers.
--
# Rescaled active electrons =      9.000
Writing occupation numbers to disk ...
---- Fractional Occupation Number Information End ----


---- Fractional Occupation Number Information ----
Temperature =    300.000 K
Fermi level =  -0.336110 Hartree
HOMO-LUMO gap =   0.050814 Hartree
Number of active orbitals = 18
Number of active electrons = 9
EMax =   8.45e-03
thresh =   1.00e-06
Generating Pseudo-Fermi distribution of occupation numbers.
--
# Rescaled active electrons =      9.000
Writing occupation numbers to disk ...
---- Fractional Occupation Number Information End ----

   37   -1102.8450371838      8.45E-03

---- Fractional Occupation Number Information ----
Temperature =    300.000 K
Fermi level =  -0.314853 Hartree
HOMO-LUMO gap =   0.030823 Hartree
Number of active orbitals = 18
Number of active electrons = 9
EMax =   8.06e-03
thresh =   1.00e-06
Generating Pseudo-Fermi distribution of occupation numbers.
--
# Rescaled active electrons =      9.000
Writing occupation numbers to disk ...
---- Fractional Occupation Number Information End ----


---- Fractional Occupation Number Information ----
Temperature =    300.000 K
Fermi level =  -0.331961 Hartree
HOMO-LUMO gap =   0.043244 Hartree
Number of active orbitals = 18
Number of active electrons = 9
EMax =   8.06e-03
thresh =   1.00e-06
Generating Pseudo-Fermi distribution of occupation numbers.
--
# Rescaled active electrons =      9.000
Writing occupation numbers to disk ...
---- Fractional Occupation Number Information End ----

   38   -1102.8339863348      8.06E-03

---- Fractional Occupation Number Information ----
Temperature =    300.000 K
Fermi level =  -0.319618 Hartree
HOMO-LUMO gap =   0.031562 Hartree
Number of active orbitals = 18
Number of active electrons = 9
EMax =   1.37e-02
thresh =   1.00e-06
Generating Pseudo-Fermi distribution of occupation numbers.
--
# Rescaled active electrons =      9.000
Writing occupation numbers to disk ...
---- Fractional Occupation Number Information End ----


---- Fractional Occupation Number Information ----
Temperature =    300.000 K
Fermi level =  -0.333360 Hartree
HOMO-LUMO gap =   0.045144 Hartree
Number of active orbitals = 18
Number of active electrons = 9
EMax =   1.37e-02
thresh =   1.00e-06
Generating Pseudo-Fermi distribution of occupation numbers.
--
# Rescaled active electrons =      9.000
Writing occupation numbers to disk ...
---- Fractional Occupation Number Information End ----

   39   -1103.7675856871      1.37E-02

---- Fractional Occupation Number Information ----
Temperature =    300.000 K
Fermi level =  -0.321480 Hartree
HOMO-LUMO gap =   0.031807 Hartree
Number of active orbitals = 18
Number of active electrons = 9
EMax =   1.23e-02
thresh =   1.00e-06
Generating Pseudo-Fermi distribution of occupation numbers.
--
# Rescaled active electrons =      9.000
Writing occupation numbers to disk ...
---- Fractional Occupation Number Information End ----


---- Fractional Occupation Number Information ----
Temperature =    300.000 K
Fermi level =  -0.334572 Hartree
HOMO-LUMO gap =   0.046285 Hartree
Number of active orbitals = 18
Number of active electrons = 9
EMax =   1.23e-02
thresh =   1.00e-06
Generating Pseudo-Fermi distribution of occupation numbers.
--
# Rescaled active electrons =      9.000
Writing occupation numbers to disk ...
---- Fractional Occupation Number Information End ----

   40   -1101.5622995305      1.23E-02

---- Fractional Occupation Number Information ----
Temperature =    300.000 K
Fermi level =  -0.327361 Hartree
HOMO-LUMO gap =   0.030748 Hartree
Number of active orbitals = 18
Number of active electrons = 9
EMax =   7.01e-03
thresh =   1.00e-06
Generating Pseudo-Fermi distribution of occupation numbers.
--
# Rescaled active electrons =      9.000
Writing occupation numbers to disk ...
---- Fractional Occupation Number Information End ----


---- Fractional Occupation Number Information ----
Temperature =    300.000 K
Fermi level =  -0.341555 Hartree
HOMO-LUMO gap =   0.048148 Hartree
Number of active orbitals = 18
Number of active electrons = 9
EMax =   7.01e-03
thresh =   1.00e-06
Generating Pseudo-Fermi distribution of occupation numbers.
--
# Rescaled active electrons =      9.000
Writing occupation numbers to disk ...
---- Fractional Occupation Number Information End ----

   41   -1102.4129723546      7.01E-03

---- Fractional Occupation Number Information ----
Temperature =    300.000 K
Fermi level =  -0.326678 Hartree
HOMO-LUMO gap =   0.031318 Hartree
Number of active orbitals = 18
Number of active electrons = 9
EMax =   1.42e-02
thresh =   1.00e-06
Generating Pseudo-Fermi distribution of occupation numbers.
--
# Rescaled active electrons =      9.000
Writing occupation numbers to disk ...
---- Fractional Occupation Number Information End ----


---- Fractional Occupation Number Information ----
Temperature =    300.000 K
Fermi level =  -0.340097 Hartree
HOMO-LUMO gap =   0.048550 Hartree
Number of active orbitals = 18
Number of active electrons = 9
EMax =   1.42e-02
thresh =   1.00e-06
Generating Pseudo-Fermi distribution of occupation numbers.
--
# Rescaled active electrons =      9.000
Writing occupation numbers to disk ...
---- Fractional Occupation Number Information End ----

   42   -1101.2406909027      1.42E-02

---- Fractional Occupation Number Information ----
Temperature =    300.000 K
Fermi level =  -0.326929 Hartree
HOMO-LUMO gap =   0.031105 Hartree
Number of active orbitals = 18
Number of active electrons = 9
EMax =   1.87e-02
thresh =   1.00e-06
Generating Pseudo-Fermi distribution of occupation numbers.
--
# Rescaled active electrons =      9.000
Writing occupation numbers to disk ...
---- Fractional Occupation Number Information End ----


---- Fractional Occupation Number Information ----
Temperature =    300.000 K
Fermi level =  -0.339255 Hartree
HOMO-LUMO gap =   0.049645 Hartree
Number of active orbitals = 18
Number of active electrons = 9
EMax =   1.87e-02
thresh =   1.00e-06
Generating Pseudo-Fermi distribution of occupation numbers.
--
# Rescaled active electrons =      9.000
Writing occupation numbers to disk ...
---- Fractional Occupation Number Information End ----

   43   -1100.8395489906      1.87E-02

---- Fractional Occupation Number Information ----
Temperature =    300.000 K
Fermi level =  -0.324080 Hartree
HOMO-LUMO gap =   0.031319 Hartree
Number of active orbitals = 18
Number of active electrons = 9
EMax =   1.48e-02
thresh =   1.00e-06
Generating Pseudo-Fermi distribution of occupation numbers.
--
# Rescaled active electrons =      9.000
Writing occupation numbers to disk ...
---- Fractional Occupation Number Information End ----


---- Fractional Occupation Number Information ----
Temperature =    300.000 K
Fermi level =  -0.337221 Hartree
HOMO-LUMO gap =   0.048594 Hartree
Number of active orbitals = 18
Number of active electrons = 9
EMax =   1.48e-02
thresh =   1.00e-06
Generating Pseudo-Fermi distribution of occupation numbers.
--
# Rescaled active electrons =      9.000
Writing occupation numbers to disk ...
---- Fractional Occupation Number Information End ----

   44   -1101.3502440613      1.48E-02

---- Fractional Occupation Number Information ----
Temperature =    300.000 K
Fermi level =  -0.320502 Hartree
HOMO-LUMO gap =   0.031997 Hartree
Number of active orbitals = 18
Number of active electrons = 9
EMax =   9.62e-03
thresh =   1.00e-06
Generating Pseudo-Fermi distribution of occupation numbers.
--
# Rescaled active electrons =      9.000
Writing occupation numbers to disk ...
---- Fractional Occupation Number Information End ----


---- Fractional Occupation Number Information ----
Temperature =    300.000 K
Fermi level =  -0.333206 Hartree
HOMO-LUMO gap =   0.048062 Hartree
Number of active orbitals = 18
Number of active electrons = 9
EMax =   9.62e-03
thresh =   1.00e-06
Generating Pseudo-Fermi distribution of occupation numbers.
--
# Rescaled active electrons =      9.000
Writing occupation numbers to disk ...
---- Fractional Occupation Number Information End ----

   45   -1102.0662763777      9.62E-03

---- Fractional Occupation Number Information ----
Temperature =    300.000 K
Fermi level =  -0.319847 Hartree
HOMO-LUMO gap =   0.031978 Hartree
Number of active orbitals = 18
Number of active electrons = 9
EMax =   4.15e-02
thresh =   1.00e-06
Generating Pseudo-Fermi distribution of occupation numbers.
--
# Rescaled active electrons =      9.000
Writing occupation numbers to disk ...
---- Fractional Occupation Number Information End ----


---- Fractional Occupation Number Information ----
Temperature =    300.000 K
Fermi level =  -0.332999 Hartree
HOMO-LUMO gap =   0.047550 Hartree
Number of active orbitals = 18
Number of active electrons = 9
EMax =   4.15e-02
thresh =   1.00e-06
Generating Pseudo-Fermi distribution of occupation numbers.
--
# Rescaled active electrons =      9.000
Writing occupation numbers to disk ...
---- Fractional Occupation Number Information End ----

   46   -1098.1891987813      4.15E-02

---- Fractional Occupation Number Information ----
Temperature =    300.000 K
Fermi level =  -0.319614 Hartree
HOMO-LUMO gap =   0.031932 Hartree
Number of active orbitals = 18
Number of active electrons = 9
EMax =   4.00e-02
thresh =   1.00e-06
Generating Pseudo-Fermi distribution of occupation numbers.
--
# Rescaled active electrons =      9.000
Writing occupation numbers to disk ...
---- Fractional Occupation Number Information End ----


---- Fractional Occupation Number Information ----
Temperature =    300.000 K
Fermi level =  -0.333836 Hartree
HOMO-LUMO gap =   0.047374 Hartree
Number of active orbitals = 18
Number of active electrons = 9
EMax =   4.00e-02
thresh =   1.00e-06
Generating Pseudo-Fermi distribution of occupation numbers.
--
# Rescaled active electrons =      9.000
Writing occupation numbers to disk ...
---- Fractional Occupation Number Information End ----

   47   -1098.2110652658      4.00E-02

---- Fractional Occupation Number Information ----
Temperature =    300.000 K
Fermi level =  -0.323314 Hartree
HOMO-LUMO gap =   0.031990 Hartree
Number of active orbitals = 18
Number of active electrons = 9
EMax =   1.09e-02
thresh =   1.00e-06
Generating Pseudo-Fermi distribution of occupation numbers.
--
# Rescaled active electrons =      9.000
Writing occupation numbers to disk ...
---- Fractional Occupation Number Information End ----


---- Fractional Occupation Number Information ----
Temperature =    300.000 K
Fermi level =  -0.336431 Hartree
HOMO-LUMO gap =   0.048965 Hartree
Number of active orbitals = 18
Number of active electrons = 9
EMax =   1.09e-02
thresh =   1.00e-06
Generating Pseudo-Fermi distribution of occupation numbers.
--
# Rescaled active electrons =      9.000
Writing occupation numbers to disk ...
---- Fractional Occupation Number Information End ----

   48   -1102.7262692461      1.09E-02

---- Fractional Occupation Number Information ----
Temperature =    300.000 K
Fermi level =  -0.333173 Hartree
HOMO-LUMO gap =   0.031786 Hartree
Number of active orbitals = 18
Number of active electrons = 9
EMax =   3.13e-02
thresh =   1.00e-06
Generating Pseudo-Fermi distribution of occupation numbers.
--
# Rescaled active electrons =      9.000
Writing occupation numbers to disk ...
---- Fractional Occupation Number Information End ----


---- Fractional Occupation Number Information ----
Temperature =    300.000 K
Fermi level =  -0.344517 Hartree
HOMO-LUMO gap =   0.052570 Hartree
Number of active orbitals = 18
Number of active electrons = 9
EMax =   3.13e-02
thresh =   1.00e-06
Generating Pseudo-Fermi distribution of occupation numbers.
--
# Rescaled active electrons =      9.000
Writing occupation numbers to disk ...
---- Fractional Occupation Number Information End ----

   49   -1101.0821436192      3.13E-02

---- Fractional Occupation Number Information ----
Temperature =    300.000 K
Fermi level =  -0.332258 Hartree
HOMO-LUMO gap =   0.031824 Hartree
Number of active orbitals = 18
Number of active electrons = 9
EMax =   2.05e-02
thresh =   1.00e-06
Generating Pseudo-Fermi distribution of occupation numbers.
--
# Rescaled active electrons =      9.000
Writing occupation numbers to disk ...
---- Fractional Occupation Number Information End ----


---- Fractional Occupation Number Information ----
Temperature =    300.000 K
Fermi level =  -0.344063 Hartree
HOMO-LUMO gap =   0.052387 Hartree
Number of active orbitals = 18
Number of active electrons = 9
EMax =   2.05e-02
thresh =   1.00e-06
Generating Pseudo-Fermi distribution of occupation numbers.
--
# Rescaled active electrons =      9.000
Writing occupation numbers to disk ...
---- Fractional Occupation Number Information End ----

   50   -1108.2628986218      2.05E-02

---- Fractional Occupation Number Information ----
Temperature =    300.000 K
Fermi level =  -0.331430 Hartree
HOMO-LUMO gap =   0.031795 Hartree
Number of active orbitals = 18
Number of active electrons = 9
EMax =   5.34e-02
thresh =   1.00e-06
Generating Pseudo-Fermi distribution of occupation numbers.
--
# Rescaled active electrons =      9.000
Writing occupation numbers to disk ...
---- Fractional Occupation Number Information End ----


---- Fractional Occupation Number Information ----
Temperature =    300.000 K
Fermi level =  -0.342536 Hartree
HOMO-LUMO gap =   0.054086 Hartree
Number of active orbitals = 18
Number of active electrons = 9
EMax =   5.34e-02
thresh =   1.00e-06
Generating Pseudo-Fermi distribution of occupation numbers.
--
# Rescaled active electrons =      9.000
Writing occupation numbers to disk ...
---- Fractional Occupation Number Information End ----

   51   -1110.8341847157      5.34E-02

---- Fractional Occupation Number Information ----
Temperature =    300.000 K
Fermi level =  -0.326818 Hartree
HOMO-LUMO gap =   0.031857 Hartree
Number of active orbitals = 18
Number of active electrons = 9
EMax =   6.34e-02
thresh =   1.00e-06
Generating Pseudo-Fermi distribution of occupation numbers.
--
# Rescaled active electrons =      9.000
Writing occupation numbers to disk ...
---- Fractional Occupation Number Information End ----


---- Fractional Occupation Number Information ----
Temperature =    300.000 K
Fermi level =  -0.338735 Hartree
HOMO-LUMO gap =   0.055257 Hartree
Number of active orbitals = 18
Number of active electrons = 9
EMax =   6.34e-02
thresh =   1.00e-06
Generating Pseudo-Fermi distribution of occupation numbers.
--
# Rescaled active electrons =      9.000
Writing occupation numbers to disk ...
---- Fractional Occupation Number Information End ----

   52   -1111.5228092084      6.34E-02

---- Fractional Occupation Number Information ----
Temperature =    300.000 K
Fermi level =  -0.331513 Hartree
HOMO-LUMO gap =   0.031799 Hartree
Number of active orbitals = 18
Number of active electrons = 9
EMax =   6.19e-02
thresh =   1.00e-06
Generating Pseudo-Fermi distribution of occupation numbers.
--
# Rescaled active electrons =      9.000
Writing occupation numbers to disk ...
---- Fractional Occupation Number Information End ----


---- Fractional Occupation Number Information ----
Temperature =    300.000 K
Fermi level =  -0.343237 Hartree
HOMO-LUMO gap =   0.053412 Hartree
Number of active orbitals = 18
Number of active electrons = 9
EMax =   6.19e-02
thresh =   1.00e-06
Generating Pseudo-Fermi distribution of occupation numbers.
--
# Rescaled active electrons =      9.000
Writing occupation numbers to disk ...
---- Fractional Occupation Number Information End ----

   53   -1112.2534828176      6.19E-02

---- Fractional Occupation Number Information ----
Temperature =    300.000 K
Fermi level =  -0.330705 Hartree
HOMO-LUMO gap =   0.031781 Hartree
Number of active orbitals = 18
Number of active electrons = 9
EMax =   1.10e-01
thresh =   1.00e-06
Generating Pseudo-Fermi distribution of occupation numbers.
--
# Rescaled active electrons =      9.000
Writing occupation numbers to disk ...
---- Fractional Occupation Number Information End ----


---- Fractional Occupation Number Information ----
Temperature =    300.000 K
Fermi level =  -0.342806 Hartree
HOMO-LUMO gap =   0.053150 Hartree
Number of active orbitals = 18
Number of active electrons = 9
EMax =   1.10e-01
thresh =   1.00e-06
Generating Pseudo-Fermi distribution of occupation numbers.
--
# Rescaled active electrons =      9.000
Writing occupation numbers to disk ...
---- Fractional Occupation Number Information End ----

   54   -1114.9956643819      1.10E-01

---- Fractional Occupation Number Information ----
Temperature =    300.000 K
Fermi level =  -0.330269 Hartree
HOMO-LUMO gap =   0.031626 Hartree
Number of active orbitals = 18
Number of active electrons = 9
EMax =   1.00e-01
thresh =   1.00e-06
Generating Pseudo-Fermi distribution of occupation numbers.
--
# Rescaled active electrons =      9.000
Writing occupation numbers to disk ...
---- Fractional Occupation Number Information End ----


---- Fractional Occupation Number Information ----
Temperature =    300.000 K
Fermi level =  -0.340522 Hartree
HOMO-LUMO gap =   0.054029 Hartree
Number of active orbitals = 18
Number of active electrons = 9
EMax =   1.00e-01
thresh =   1.00e-06
Generating Pseudo-Fermi distribution of occupation numbers.
--
# Rescaled active electrons =      9.000
Writing occupation numbers to disk ...
---- Fractional Occupation Number Information End ----

   55   -1113.4536769989      1.00E-01

---- Fractional Occupation Number Information ----
Temperature =    300.000 K
Fermi level =  -0.332083 Hartree
HOMO-LUMO gap =   0.031497 Hartree
Number of active orbitals = 18
Number of active electrons = 9
EMax =   7.31e-02
thresh =   1.00e-06
Generating Pseudo-Fermi distribution of occupation numbers.
--
# Rescaled active electrons =      9.000
Writing occupation numbers to disk ...
---- Fractional Occupation Number Information End ----


---- Fractional Occupation Number Information ----
Temperature =    300.000 K
Fermi level =  -0.342688 Hartree
HOMO-LUMO gap =   0.052227 Hartree
Number of active orbitals = 18
Number of active electrons = 9
EMax =   7.31e-02
thresh =   1.00e-06
Generating Pseudo-Fermi distribution of occupation numbers.
--
# Rescaled active electrons =      9.000
Writing occupation numbers to disk ...
---- Fractional Occupation Number Information End ----

   56   -1111.7469523568      7.31E-02

---- Fractional Occupation Number Information ----
Temperature =    300.000 K
Fermi level =  -0.333496 Hartree
HOMO-LUMO gap =   0.031687 Hartree
Number of active orbitals = 18
Number of active electrons = 9
EMax =   6.88e-02
thresh =   1.00e-06
Generating Pseudo-Fermi distribution of occupation numbers.
--
# Rescaled active electrons =      9.000
Writing occupation numbers to disk ...
---- Fractional Occupation Number Information End ----


---- Fractional Occupation Number Information ----
Temperature =    300.000 K
Fermi level =  -0.343356 Hartree
HOMO-LUMO gap =   0.053276 Hartree
Number of active orbitals = 18
Number of active electrons = 9
EMax =   6.88e-02
thresh =   1.00e-06
Generating Pseudo-Fermi distribution of occupation numbers.
--
# Rescaled active electrons =      9.000
Writing occupation numbers to disk ...
---- Fractional Occupation Number Information End ----

   57   -1112.0020632991      6.88E-02

---- Fractional Occupation Number Information ----
Temperature =    300.000 K
Fermi level =  -0.335041 Hartree
HOMO-LUMO gap =   0.031647 Hartree
Number of active orbitals = 18
Number of active electrons = 9
EMax =   6.41e-02
thresh =   1.00e-06
Generating Pseudo-Fermi distribution of occupation numbers.
--
# Rescaled active electrons =      9.000
Writing occupation numbers to disk ...
---- Fractional Occupation Number Information End ----


---- Fractional Occupation Number Information ----
Temperature =    300.000 K
Fermi level =  -0.345103 Hartree
HOMO-LUMO gap =   0.052547 Hartree
Number of active orbitals = 18
Number of active electrons = 9
EMax =   6.41e-02
thresh =   1.00e-06
Generating Pseudo-Fermi distribution of occupation numbers.
--
# Rescaled active electrons =      9.000
Writing occupation numbers to disk ...
---- Fractional Occupation Number Information End ----

   58   -1112.7776356293      6.41E-02

---- Fractional Occupation Number Information ----
Temperature =    300.000 K
Fermi level =  -0.335689 Hartree
HOMO-LUMO gap =   0.031678 Hartree
Number of active orbitals = 18
Number of active electrons = 9
EMax =   6.69e-02
thresh =   1.00e-06
Generating Pseudo-Fermi distribution of occupation numbers.
--
# Rescaled active electrons =      9.000
Writing occupation numbers to disk ...
---- Fractional Occupation Number Information End ----


---- Fractional Occupation Number Information ----
Temperature =    300.000 K
Fermi level =  -0.345196 Hartree
HOMO-LUMO gap =   0.053398 Hartree
Number of active orbitals = 18
Number of active electrons = 9
EMax =   6.69e-02
thresh =   1.00e-06
Generating Pseudo-Fermi distribution of occupation numbers.
--
# Rescaled active electrons =      9.000
Writing occupation numbers to disk ...
---- Fractional Occupation Number Information End ----

   59   -1112.7256412683      6.69E-02

---- Fractional Occupation Number Information ----
Temperature =    300.000 K
Fermi level =  -0.341297 Hartree
HOMO-LUMO gap =   0.031857 Hartree
Number of active orbitals = 18
Number of active electrons = 9
EMax =   7.04e-02
thresh =   1.00e-06
Generating Pseudo-Fermi distribution of occupation numbers.
--
# Rescaled active electrons =      9.000
Writing occupation numbers to disk ...
---- Fractional Occupation Number Information End ----


---- Fractional Occupation Number Information ----
Temperature =    300.000 K
Fermi level =  -0.346849 Hartree
HOMO-LUMO gap =   0.057200 Hartree
Number of active orbitals = 18
Number of active electrons = 9
EMax =   7.04e-02
thresh =   1.00e-06
Generating Pseudo-Fermi distribution of occupation numbers.
--
# Rescaled active electrons =      9.000
Writing occupation numbers to disk ...
---- Fractional Occupation Number Information End ----

   60   -1111.8921453530      7.04E-02

---- Fractional Occupation Number Information ----
Temperature =    300.000 K
Fermi level =  -0.338865 Hartree
HOMO-LUMO gap =   0.031846 Hartree
Number of active orbitals = 18
Number of active electrons = 9
EMax =   1.07e-02
thresh =   1.00e-06
Generating Pseudo-Fermi distribution of occupation numbers.
--
# Rescaled active electrons =      9.000
Writing occupation numbers to disk ...
---- Fractional Occupation Number Information End ----


---- Fractional Occupation Number Information ----
Temperature =    300.000 K
Fermi level =  -0.345107 Hartree
HOMO-LUMO gap =   0.056850 Hartree
Number of active orbitals = 18
Number of active electrons = 9
EMax =   1.07e-02
thresh =   1.00e-06
Generating Pseudo-Fermi distribution of occupation numbers.
--
# Rescaled active electrons =      9.000
Writing occupation numbers to disk ...
---- Fractional Occupation Number Information End ----

   61   -1105.9467573854      1.07E-02

---- Fractional Occupation Number Information ----
Temperature =    300.000 K
Fermi level =  -0.338414 Hartree
HOMO-LUMO gap =   0.031748 Hartree
Number of active orbitals = 18
Number of active electrons = 9
EMax =   1.66e-02
thresh =   1.00e-06
Generating Pseudo-Fermi distribution of occupation numbers.
--
# Rescaled active electrons =      9.000
Writing occupation numbers to disk ...
---- Fractional Occupation Number Information End ----


---- Fractional Occupation Number Information ----
Temperature =    300.000 K
Fermi level =  -0.344998 Hartree
HOMO-LUMO gap =   0.055597 Hartree
Number of active orbitals = 18
Number of active electrons = 9
EMax =   1.66e-02
thresh =   1.00e-06
Generating Pseudo-Fermi distribution of occupation numbers.
--
# Rescaled active electrons =      9.000
Writing occupation numbers to disk ...
---- Fractional Occupation Number Information End ----

   62   -1103.6889179904      1.66E-02

---- Fractional Occupation Number Information ----
Temperature =    300.000 K
Fermi level =  -0.337347 Hartree
HOMO-LUMO gap =   0.031767 Hartree
Number of active orbitals = 18
Number of active electrons = 9
EMax =   2.23e-02
thresh =   1.00e-06
Generating Pseudo-Fermi distribution of occupation numbers.
--
# Rescaled active electrons =      9.000
Writing occupation numbers to disk ...
---- Fractional Occupation Number Information End ----


---- Fractional Occupation Number Information ----
Temperature =    300.000 K
Fermi level =  -0.344041 Hartree
HOMO-LUMO gap =   0.056002 Hartree
Number of active orbitals = 18
Number of active electrons = 9
EMax =   2.23e-02
thresh =   1.00e-06
Generating Pseudo-Fermi distribution of occupation numbers.
--
# Rescaled active electrons =      9.000
Writing occupation numbers to disk ...
---- Fractional Occupation Number Information End ----

   63   -1103.9743026438      2.23E-02

---- Fractional Occupation Number Information ----
Temperature =    300.000 K
Fermi level =  -0.332911 Hartree
HOMO-LUMO gap =   0.031701 Hartree
Number of active orbitals = 18
Number of active electrons = 9
EMax =   2.09e-02
thresh =   1.00e-06
Generating Pseudo-Fermi distribution of occupation numbers.
--
# Rescaled active electrons =      9.000
Writing occupation numbers to disk ...
---- Fractional Occupation Number Information End ----


---- Fractional Occupation Number Information ----
Temperature =    300.000 K
Fermi level =  -0.340884 Hartree
HOMO-LUMO gap =   0.055238 Hartree
Number of active orbitals = 18
Number of active electrons = 9
EMax =   2.09e-02
thresh =   1.00e-06
Generating Pseudo-Fermi distribution of occupation numbers.
--
# Rescaled active electrons =      9.000
Writing occupation numbers to disk ...
---- Fractional Occupation Number Information End ----

   64   -1104.0906518519      2.09E-02

---- Fractional Occupation Number Information ----
Temperature =    300.000 K
Fermi level =  -0.327685 Hartree
HOMO-LUMO gap =   0.031759 Hartree
Number of active orbitals = 18
Number of active electrons = 9
EMax =   3.70e-02
thresh =   1.00e-06
Generating Pseudo-Fermi distribution of occupation numbers.
--
# Rescaled active electrons =      9.000
Writing occupation numbers to disk ...
---- Fractional Occupation Number Information End ----


---- Fractional Occupation Number Information ----
Temperature =    300.000 K
Fermi level =  -0.338237 Hartree
HOMO-LUMO gap =   0.053533 Hartree
Number of active orbitals = 18
Number of active electrons = 9
EMax =   3.70e-02
thresh =   1.00e-06
Generating Pseudo-Fermi distribution of occupation numbers.
--
# Rescaled active electrons =      9.000
Writing occupation numbers to disk ...
---- Fractional Occupation Number Information End ----

   65   -1105.4560733734      3.70E-02

---- Fractional Occupation Number Information ----
Temperature =    300.000 K
Fermi level =  -0.333855 Hartree
HOMO-LUMO gap =   0.031477 Hartree
Number of active orbitals = 18
Number of active electrons = 9
EMax =   4.82e-02
thresh =   1.00e-06
Generating Pseudo-Fermi distribution of occupation numbers.
--
# Rescaled active electrons =      9.000
Writing occupation numbers to disk ...
---- Fractional Occupation Number Information End ----


---- Fractional Occupation Number Information ----
Temperature =    300.000 K
Fermi level =  -0.342759 Hartree
HOMO-LUMO gap =   0.051969 Hartree
Number of active orbitals = 18
Number of active electrons = 9
EMax =   4.82e-02
thresh =   1.00e-06
Generating Pseudo-Fermi distribution of occupation numbers.
--
# Rescaled active electrons =      9.000
Writing occupation numbers to disk ...
---- Fractional Occupation Number Information End ----

   66   -1101.6164170008      4.82E-02

---- Fractional Occupation Number Information ----
Temperature =    300.000 K
Fermi level =  -0.328682 Hartree
HOMO-LUMO gap =   0.031715 Hartree
Number of active orbitals = 18
Number of active electrons = 9
EMax =   4.19e-02
thresh =   1.00e-06
Generating Pseudo-Fermi distribution of occupation numbers.
--
# Rescaled active electrons =      9.000
Writing occupation numbers to disk ...
---- Fractional Occupation Number Information End ----


---- Fractional Occupation Number Information ----
Temperature =    300.000 K
Fermi level =  -0.339520 Hartree
HOMO-LUMO gap =   0.053099 Hartree
Number of active orbitals = 18
Number of active electrons = 9
EMax =   4.19e-02
thresh =   1.00e-06
Generating Pseudo-Fermi distribution of occupation numbers.
--
# Rescaled active electrons =      9.000
Writing occupation numbers to disk ...
---- Fractional Occupation Number Information End ----

   67   -1102.0759122659      4.19E-02

---- Fractional Occupation Number Information ----
Temperature =    300.000 K
Fermi level =  -0.329215 Hartree
HOMO-LUMO gap =   0.031710 Hartree
Number of active orbitals = 18
Number of active electrons = 9
EMax =   1.20e-02
thresh =   1.00e-06
Generating Pseudo-Fermi distribution of occupation numbers.
--
# Rescaled active electrons =      9.000
Writing occupation numbers to disk ...
---- Fractional Occupation Number Information End ----


---- Fractional Occupation Number Information ----
Temperature =    300.000 K
Fermi level =  -0.338102 Hartree
HOMO-LUMO gap =   0.055040 Hartree
Number of active orbitals = 18
Number of active electrons = 9
EMax =   1.20e-02
thresh =   1.00e-06
Generating Pseudo-Fermi distribution of occupation numbers.
--
# Rescaled active electrons =      9.000
Writing occupation numbers to disk ...
---- Fractional Occupation Number Information End ----

   68   -1103.2688894036      1.20E-02

---- Fractional Occupation Number Information ----
Temperature =    300.000 K
Fermi level =  -0.330489 Hartree
HOMO-LUMO gap =   0.031726 Hartree
Number of active orbitals = 18
Number of active electrons = 9
EMax =   2.09e-02
thresh =   1.00e-06
Generating Pseudo-Fermi distribution of occupation numbers.
--
# Rescaled active electrons =      9.000
Writing occupation numbers to disk ...
---- Fractional Occupation Number Information End ----


---- Fractional Occupation Number Information ----
Temperature =    300.000 K
Fermi level =  -0.338837 Hartree
HOMO-LUMO gap =   0.055449 Hartree
Number of active orbitals = 18
Number of active electrons = 9
EMax =   2.09e-02
thresh =   1.00e-06
Generating Pseudo-Fermi distribution of occupation numbers.
--
# Rescaled active electrons =      9.000
Writing occupation numbers to disk ...
---- Fractional Occupation Number Information End ----

   69   -1100.9879673234      2.09E-02

---- Fractional Occupation Number Information ----
Temperature =    300.000 K
Fermi level =  -0.329853 Hartree
HOMO-LUMO gap =   0.031678 Hartree
Number of active orbitals = 18
Number of active electrons = 9
EMax =   2.48e-02
thresh =   1.00e-06
Generating Pseudo-Fermi distribution of occupation numbers.
--
# Rescaled active electrons =      9.000
Writing occupation numbers to disk ...
---- Fractional Occupation Number Information End ----


---- Fractional Occupation Number Information ----
Temperature =    300.000 K
Fermi level =  -0.338218 Hartree
HOMO-LUMO gap =   0.055305 Hartree
Number of active orbitals = 18
Number of active electrons = 9
EMax =   2.48e-02
thresh =   1.00e-06
Generating Pseudo-Fermi distribution of occupation numbers.
--
# Rescaled active electrons =      9.000
Writing occupation numbers to disk ...
---- Fractional Occupation Number Information End ----

   70   -1100.1463745864      2.48E-02

---- Fractional Occupation Number Information ----
Temperature =    300.000 K
Fermi level =  -0.329726 Hartree
HOMO-LUMO gap =   0.031674 Hartree
Number of active orbitals = 18
Number of active electrons = 9
EMax =   2.08e-02
thresh =   1.00e-06
Generating Pseudo-Fermi distribution of occupation numbers.
--
# Rescaled active electrons =      9.000
Writing occupation numbers to disk ...
---- Fractional Occupation Number Information End ----


---- Fractional Occupation Number Information ----
Temperature =    300.000 K
Fermi level =  -0.337876 Hartree
HOMO-LUMO gap =   0.055712 Hartree
Number of active orbitals = 18
Number of active electrons = 9
EMax =   2.08e-02
thresh =   1.00e-06
Generating Pseudo-Fermi distribution of occupation numbers.
--
# Rescaled active electrons =      9.000
Writing occupation numbers to disk ...
---- Fractional Occupation Number Information End ----

   71   -1100.4906758820      2.08E-02

---- Fractional Occupation Number Information ----
Temperature =    300.000 K
Fermi level =  -0.331142 Hartree
HOMO-LUMO gap =   0.031711 Hartree
Number of active orbitals = 18
Number of active electrons = 9
EMax =   1.87e-02
thresh =   1.00e-06
Generating Pseudo-Fermi distribution of occupation numbers.
--
# Rescaled active electrons =      9.000
Writing occupation numbers to disk ...
---- Fractional Occupation Number Information End ----


---- Fractional Occupation Number Information ----
Temperature =    300.000 K
Fermi level =  -0.338443 Hartree
HOMO-LUMO gap =   0.056165 Hartree
Number of active orbitals = 18
Number of active electrons = 9
EMax =   1.87e-02
thresh =   1.00e-06
Generating Pseudo-Fermi distribution of occupation numbers.
--
# Rescaled active electrons =      9.000
Writing occupation numbers to disk ...
---- Fractional Occupation Number Information End ----

   72   -1101.3856211364      1.87E-02

---- Fractional Occupation Number Information ----
Temperature =    300.000 K
Fermi level =  -0.328770 Hartree
HOMO-LUMO gap =   0.031689 Hartree
Number of active orbitals = 18
Number of active electrons = 9
EMax =   3.27e-02
thresh =   1.00e-06
Generating Pseudo-Fermi distribution of occupation numbers.
--
# Rescaled active electrons =      9.000
Writing occupation numbers to disk ...
---- Fractional Occupation Number Information End ----


---- Fractional Occupation Number Information ----
Temperature =    300.000 K
Fermi level =  -0.337173 Hartree
HOMO-LUMO gap =   0.055798 Hartree
Number of active orbitals = 18
Number of active electrons = 9
EMax =   3.27e-02
thresh =   1.00e-06
Generating Pseudo-Fermi distribution of occupation numbers.
--
# Rescaled active electrons =      9.000
Writing occupation numbers to disk ...
---- Fractional Occupation Number Information End ----

[...]
thresh =   1.00e-06
Generating Pseudo-Fermi distribution of occupation numbers.
--
# Rescaled active electrons =      9.000
Writing occupation numbers to disk ...
---- Fractional Occupation Number Information End ----

  179   -1108.5116791967      1.64E-02

---- Fractional Occupation Number Information ----
Temperature =    300.000 K
Fermi level =  -0.355242 Hartree
HOMO-LUMO gap =   0.032010 Hartree
Number of active orbitals = 18
Number of active electrons = 9
EMax =   3.90e-02
thresh =   1.00e-06
Generating Pseudo-Fermi distribution of occupation numbers.
--
# Rescaled active electrons =      9.000
Writing occupation numbers to disk ...
---- Fractional Occupation Number Information End ----


---- Fractional Occupation Number Information ----
Temperature =    300.000 K
Fermi level =  -0.360830 Hartree
HOMO-LUMO gap =   0.055761 Hartree
Number of active orbitals = 18
Number of active electrons = 9
EMax =   3.90e-02
thresh =   1.00e-06
Generating Pseudo-Fermi distribution of occupation numbers.
--
# Rescaled active electrons =      9.000
Writing occupation numbers to disk ...
---- Fractional Occupation Number Information End ----

  180   -1115.2728704927      3.90E-02

---- Fractional Occupation Number Information ----
Temperature =    300.000 K
Fermi level =  -0.351811 Hartree
HOMO-LUMO gap =   0.032050 Hartree
Number of active orbitals = 18
Number of active electrons = 9
EMax =   4.92e-02
thresh =   1.00e-06
Generating Pseudo-Fermi distribution of occupation numbers.
--
# Rescaled active electrons =      9.000
Writing occupation numbers to disk ...
---- Fractional Occupation Number Information End ----


---- Fractional Occupation Number Information ----
Temperature =    300.000 K
Fermi level =  -0.358054 Hartree
HOMO-LUMO gap =   0.058034 Hartree
Number of active orbitals = 18
Number of active electrons = 9
EMax =   4.92e-02
thresh =   1.00e-06
Generating Pseudo-Fermi distribution of occupation numbers.
--
# Rescaled active electrons =      9.000
Writing occupation numbers to disk ...
---- Fractional Occupation Number Information End ----

  181   -1117.2317936113      4.92E-02

---- Fractional Occupation Number Information ----
Temperature =    300.000 K
Fermi level =  -0.351473 Hartree
HOMO-LUMO gap =   0.031932 Hartree
Number of active orbitals = 18
Number of active electrons = 9
EMax =   4.44e-02
thresh =   1.00e-06
Generating Pseudo-Fermi distribution of occupation numbers.
--
# Rescaled active electrons =      9.000
Writing occupation numbers to disk ...
---- Fractional Occupation Number Information End ----


---- Fractional Occupation Number Information ----
Temperature =    300.000 K
Fermi level =  -0.357796 Hartree
HOMO-LUMO gap =   0.057667 Hartree
Number of active orbitals = 18
Number of active electrons = 9
EMax =   4.44e-02
thresh =   1.00e-06
Generating Pseudo-Fermi distribution of occupation numbers.
--
# Rescaled active electrons =      9.000
Writing occupation numbers to disk ...
---- Fractional Occupation Number Information End ----

  182   -1115.6667635476      4.44E-02

---- Fractional Occupation Number Information ----
Temperature =    300.000 K
Fermi level =  -0.351993 Hartree
HOMO-LUMO gap =   0.031751 Hartree
Number of active orbitals = 18
Number of active electrons = 9
EMax =   4.33e-02
thresh =   1.00e-06
Generating Pseudo-Fermi distribution of occupation numbers.
--
# Rescaled active electrons =      9.000
Writing occupation numbers to disk ...
---- Fractional Occupation Number Information End ----


---- Fractional Occupation Number Information ----
Temperature =    300.000 K
Fermi level =  -0.357317 Hartree
HOMO-LUMO gap =   0.057806 Hartree
Number of active orbitals = 18
Number of active electrons = 9
EMax =   4.33e-02
thresh =   1.00e-06
Generating Pseudo-Fermi distribution of occupation numbers.
--
# Rescaled active electrons =      9.000
Writing occupation numbers to disk ...
---- Fractional Occupation Number Information End ----

  183   -1115.2115274022      4.33E-02

---- Fractional Occupation Number Information ----
Temperature =    300.000 K
Fermi level =  -0.351073 Hartree
HOMO-LUMO gap =   0.031759 Hartree
Number of active orbitals = 18
Number of active electrons = 9
EMax =   5.10e-02
thresh =   1.00e-06
Generating Pseudo-Fermi distribution of occupation numbers.
--
# Rescaled active electrons =      9.000
Writing occupation numbers to disk ...
---- Fractional Occupation Number Information End ----


---- Fractional Occupation Number Information ----
Temperature =    300.000 K
Fermi level =  -0.357824 Hartree
HOMO-LUMO gap =   0.057792 Hartree
Number of active orbitals = 18
Number of active electrons = 9
EMax =   5.10e-02
thresh =   1.00e-06
Generating Pseudo-Fermi distribution of occupation numbers.
--
# Rescaled active electrons =      9.000
Writing occupation numbers to disk ...
---- Fractional Occupation Number Information End ----

  184   -1117.5471680601      5.10E-02

---- Fractional Occupation Number Information ----
Temperature =    300.000 K
Fermi level =  -0.351019 Hartree
HOMO-LUMO gap =   0.031778 Hartree
Number of active orbitals = 18
Number of active electrons = 9
EMax =   3.99e-02
thresh =   1.00e-06
Generating Pseudo-Fermi distribution of occupation numbers.
--
# Rescaled active electrons =      9.000
Writing occupation numbers to disk ...
---- Fractional Occupation Number Information End ----


---- Fractional Occupation Number Information ----
Temperature =    300.000 K
Fermi level =  -0.357847 Hartree
HOMO-LUMO gap =   0.057894 Hartree
Number of active orbitals = 18
Number of active electrons = 9
EMax =   3.99e-02
thresh =   1.00e-06
Generating Pseudo-Fermi distribution of occupation numbers.
--
# Rescaled active electrons =      9.000
Writing occupation numbers to disk ...
---- Fractional Occupation Number Information End ----

  185   -1112.9629612484      3.99E-02

---- Fractional Occupation Number Information ----
Temperature =    300.000 K
Fermi level =  -0.352237 Hartree
HOMO-LUMO gap =   0.031702 Hartree
Number of active orbitals = 18
Number of active electrons = 9
EMax =   3.77e-02
thresh =   1.00e-06
Generating Pseudo-Fermi distribution of occupation numbers.
--
# Rescaled active electrons =      9.000
Writing occupation numbers to disk ...
---- Fractional Occupation Number Information End ----


---- Fractional Occupation Number Information ----
Temperature =    300.000 K
Fermi level =  -0.358748 Hartree
HOMO-LUMO gap =   0.058049 Hartree
Number of active orbitals = 18
Number of active electrons = 9
EMax =   3.77e-02
thresh =   1.00e-06
Generating Pseudo-Fermi distribution of occupation numbers.
--
# Rescaled active electrons =      9.000
Writing occupation numbers to disk ...
---- Fractional Occupation Number Information End ----

  186   -1112.3747323547      3.77E-02

---- Fractional Occupation Number Information ----
Temperature =    300.000 K
Fermi level =  -0.353149 Hartree
HOMO-LUMO gap =   0.031600 Hartree
Number of active orbitals = 18
Number of active electrons = 9
EMax =   3.79e-02
thresh =   1.00e-06
Generating Pseudo-Fermi distribution of occupation numbers.
--
# Rescaled active electrons =      9.000
Writing occupation numbers to disk ...
---- Fractional Occupation Number Information End ----


---- Fractional Occupation Number Information ----
Temperature =    300.000 K
Fermi level =  -0.360535 Hartree
HOMO-LUMO gap =   0.057275 Hartree
Number of active orbitals = 18
Number of active electrons = 9
EMax =   3.79e-02
thresh =   1.00e-06
Generating Pseudo-Fermi distribution of occupation numbers.
--
# Rescaled active electrons =      9.000
Writing occupation numbers to disk ...
---- Fractional Occupation Number Information End ----

  187   -1112.4550194147      3.79E-02

---- Fractional Occupation Number Information ----
Temperature =    300.000 K
Fermi level =  -0.353825 Hartree
HOMO-LUMO gap =   0.031510 Hartree
Number of active orbitals = 18
Number of active electrons = 9
EMax =   3.19e-02
thresh =   1.00e-06
Generating Pseudo-Fermi distribution of occupation numbers.
--
# Rescaled active electrons =      9.000
Writing occupation numbers to disk ...
---- Fractional Occupation Number Information End ----


---- Fractional Occupation Number Information ----
Temperature =    300.000 K
Fermi level =  -0.361401 Hartree
HOMO-LUMO gap =   0.056627 Hartree
Number of active orbitals = 18
Number of active electrons = 9
EMax =   3.19e-02
thresh =   1.00e-06
Generating Pseudo-Fermi distribution of occupation numbers.
--
# Rescaled active electrons =      9.000
Writing occupation numbers to disk ...
---- Fractional Occupation Number Information End ----

  188   -1109.9361001204      3.19E-02

---- Fractional Occupation Number Information ----
Temperature =    300.000 K
Fermi level =  -0.353709 Hartree
HOMO-LUMO gap =   0.032052 Hartree
Number of active orbitals = 18
Number of active electrons = 9
EMax =   2.14e-02
thresh =   1.00e-06
Generating Pseudo-Fermi distribution of occupation numbers.
--
# Rescaled active electrons =      9.000
Writing occupation numbers to disk ...
---- Fractional Occupation Number Information End ----


---- Fractional Occupation Number Information ----
Temperature =    300.000 K
Fermi level =  -0.360444 Hartree
HOMO-LUMO gap =   0.057501 Hartree
Number of active orbitals = 18
Number of active electrons = 9
EMax =   2.14e-02
thresh =   1.00e-06
Generating Pseudo-Fermi distribution of occupation numbers.
--
# Rescaled active electrons =      9.000
Writing occupation numbers to disk ...
---- Fractional Occupation Number Information End ----

  189   -1106.2509773696      2.14E-02

---- Fractional Occupation Number Information ----
Temperature =    300.000 K
Fermi level =  -0.350774 Hartree
HOMO-LUMO gap =   0.031918 Hartree
Number of active orbitals = 18
Number of active electrons = 9
EMax =   2.43e-02
thresh =   1.00e-06
Generating Pseudo-Fermi distribution of occupation numbers.
--
# Rescaled active electrons =      9.000
Writing occupation numbers to disk ...
---- Fractional Occupation Number Information End ----


---- Fractional Occupation Number Information ----
Temperature =    300.000 K
Fermi level =  -0.356571 Hartree
HOMO-LUMO gap =   0.057529 Hartree
Number of active orbitals = 18
Number of active electrons = 9
EMax =   2.43e-02
thresh =   1.00e-06
Generating Pseudo-Fermi distribution of occupation numbers.
--
# Rescaled active electrons =      9.000
Writing occupation numbers to disk ...
---- Fractional Occupation Number Information End ----

  190   -1106.3604156648      2.43E-02

---- Fractional Occupation Number Information ----
Temperature =    300.000 K
Fermi level =  -0.349720 Hartree
HOMO-LUMO gap =   0.032048 Hartree
Number of active orbitals = 18
Number of active electrons = 9
EMax =   2.62e-02
thresh =   1.00e-06
Generating Pseudo-Fermi distribution of occupation numbers.
--
# Rescaled active electrons =      9.000
Writing occupation numbers to disk ...
---- Fractional Occupation Number Information End ----


---- Fractional Occupation Number Information ----
Temperature =    300.000 K
Fermi level =  -0.355885 Hartree
HOMO-LUMO gap =   0.056956 Hartree
Number of active orbitals = 18
Number of active electrons = 9
EMax =   2.62e-02
thresh =   1.00e-06
Generating Pseudo-Fermi distribution of occupation numbers.
--
# Rescaled active electrons =      9.000
Writing occupation numbers to disk ...
---- Fractional Occupation Number Information End ----

  191   -1108.6752105725      2.62E-02

---- Fractional Occupation Number Information ----
Temperature =    300.000 K
Fermi level =  -0.351381 Hartree
HOMO-LUMO gap =   0.031847 Hartree
Number of active orbitals = 18
Number of active electrons = 9
EMax =   1.65e-02
thresh =   1.00e-06
Generating Pseudo-Fermi distribution of occupation numbers.
--
# Rescaled active electrons =      9.000
Writing occupation numbers to disk ...
---- Fractional Occupation Number Information End ----


---- Fractional Occupation Number Information ----
Temperature =    300.000 K
Fermi level =  -0.358731 Hartree
HOMO-LUMO gap =   0.054840 Hartree
Number of active orbitals = 18
Number of active electrons = 9
EMax =   1.65e-02
thresh =   1.00e-06
Generating Pseudo-Fermi distribution of occupation numbers.
--
# Rescaled active electrons =      9.000
Writing occupation numbers to disk ...
---- Fractional Occupation Number Information End ----

  192   -1105.4141679358      1.65E-02

---- Fractional Occupation Number Information ----
Temperature =    300.000 K
Fermi level =  -0.349792 Hartree
HOMO-LUMO gap =   0.032069 Hartree
Number of active orbitals = 18
Number of active electrons = 9
EMax =   2.61e-02
thresh =   1.00e-06
Generating Pseudo-Fermi distribution of occupation numbers.
--
# Rescaled active electrons =      9.000
Writing occupation numbers to disk ...
---- Fractional Occupation Number Information End ----


---- Fractional Occupation Number Information ----
Temperature =    300.000 K
Fermi level =  -0.357231 Hartree
HOMO-LUMO gap =   0.055147 Hartree
Number of active orbitals = 18
Number of active electrons = 9
EMax =   2.61e-02
thresh =   1.00e-06
Generating Pseudo-Fermi distribution of occupation numbers.
--
# Rescaled active electrons =      9.000
Writing occupation numbers to disk ...
---- Fractional Occupation Number Information End ----

  193   -1107.2773665391      2.61E-02

---- Fractional Occupation Number Information ----
Temperature =    300.000 K
Fermi level =  -0.351736 Hartree
HOMO-LUMO gap =   0.031366 Hartree
Number of active orbitals = 18
Number of active electrons = 9
EMax =   2.62e-02
thresh =   1.00e-06
Generating Pseudo-Fermi distribution of occupation numbers.
--
# Rescaled active electrons =      9.000
Writing occupation numbers to disk ...
---- Fractional Occupation Number Information End ----


---- Fractional Occupation Number Information ----
Temperature =    300.000 K
Fermi level =  -0.359557 Hartree
HOMO-LUMO gap =   0.053339 Hartree
Number of active orbitals = 18
Number of active electrons = 9
EMax =   2.62e-02
thresh =   1.00e-06
Generating Pseudo-Fermi distribution of occupation numbers.
--
# Rescaled active electrons =      9.000
Writing occupation numbers to disk ...
---- Fractional Occupation Number Information End ----

  194   -1106.8832796104      2.62E-02

---- Fractional Occupation Number Information ----
Temperature =    300.000 K
Fermi level =  -0.343109 Hartree
HOMO-LUMO gap =   0.032220 Hartree
Number of active orbitals = 18
Number of active electrons = 9
EMax =   2.17e-02
thresh =   1.00e-06
Generating Pseudo-Fermi distribution of occupation numbers.
--
# Rescaled active electrons =      9.000
Writing occupation numbers to disk ...
---- Fractional Occupation Number Information End ----


---- Fractional Occupation Number Information ----
Temperature =    300.000 K
Fermi level =  -0.350662 Hartree
HOMO-LUMO gap =   0.054063 Hartree
Number of active orbitals = 18
Number of active electrons = 9
EMax =   2.17e-02
thresh =   1.00e-06
Generating Pseudo-Fermi distribution of occupation numbers.
--
# Rescaled active electrons =      9.000
Writing occupation numbers to disk ...
---- Fractional Occupation Number Information End ----

  195   -1107.0304855741      2.17E-02

---- Fractional Occupation Number Information ----
Temperature =    300.000 K
Fermi level =  -0.343199 Hartree
HOMO-LUMO gap =   0.032120 Hartree
Number of active orbitals = 18
Number of active electrons = 9
EMax =   3.65e-02
thresh =   1.00e-06
Generating Pseudo-Fermi distribution of occupation numbers.
--
# Rescaled active electrons =      9.000
Writing occupation numbers to disk ...
---- Fractional Occupation Number Information End ----


---- Fractional Occupation Number Information ----
Temperature =    300.000 K
Fermi level =  -0.351189 Hartree
HOMO-LUMO gap =   0.054093 Hartree
Number of active orbitals = 18
Number of active electrons = 9
EMax =   3.65e-02
thresh =   1.00e-06
Generating Pseudo-Fermi distribution of occupation numbers.
--
# Rescaled active electrons =      9.000
Writing occupation numbers to disk ...
---- Fractional Occupation Number Information End ----

  196   -1106.8080890096      3.65E-02

---- Fractional Occupation Number Information ----
Temperature =    300.000 K
Fermi level =  -0.344142 Hartree
HOMO-LUMO gap =   0.031789 Hartree
Number of active orbitals = 18
Number of active electrons = 9
EMax =   4.05e-02
thresh =   1.00e-06
Generating Pseudo-Fermi distribution of occupation numbers.
--
# Rescaled active electrons =      9.000
Writing occupation numbers to disk ...
---- Fractional Occupation Number Information End ----


---- Fractional Occupation Number Information ----
Temperature =    300.000 K
Fermi level =  -0.354351 Hartree
HOMO-LUMO gap =   0.052644 Hartree
Number of active orbitals = 18
Number of active electrons = 9
EMax =   4.05e-02
thresh =   1.00e-06
Generating Pseudo-Fermi distribution of occupation numbers.
--
# Rescaled active electrons =      9.000
Writing occupation numbers to disk ...
---- Fractional Occupation Number Information End ----

  197   -1107.2547439524      4.05E-02

---- Fractional Occupation Number Information ----
Temperature =    300.000 K
Fermi level =  -0.342958 Hartree
HOMO-LUMO gap =   0.031835 Hartree
Number of active orbitals = 18
Number of active electrons = 9
EMax =   4.70e-02
thresh =   1.00e-06
Generating Pseudo-Fermi distribution of occupation numbers.
--
# Rescaled active electrons =      9.000
Writing occupation numbers to disk ...
---- Fractional Occupation Number Information End ----


---- Fractional Occupation Number Information ----
Temperature =    300.000 K
Fermi level =  -0.353011 Hartree
HOMO-LUMO gap =   0.053047 Hartree
Number of active orbitals = 18
Number of active electrons = 9
EMax =   4.70e-02
thresh =   1.00e-06
Generating Pseudo-Fermi distribution of occupation numbers.
--
# Rescaled active electrons =      9.000
Writing occupation numbers to disk ...
---- Fractional Occupation Number Information End ----

  198   -1106.4445633104      4.70E-02

---- Fractional Occupation Number Information ----
Temperature =    300.000 K
Fermi level =  -0.337256 Hartree
HOMO-LUMO gap =   0.032080 Hartree
Number of active orbitals = 18
Number of active electrons = 9
EMax =   4.10e-02
thresh =   1.00e-06
Generating Pseudo-Fermi distribution of occupation numbers.
--
# Rescaled active electrons =      9.000
Writing occupation numbers to disk ...
---- Fractional Occupation Number Information End ----


---- Fractional Occupation Number Information ----
Temperature =    300.000 K
Fermi level =  -0.347544 Hartree
HOMO-LUMO gap =   0.055441 Hartree
Number of active orbitals = 18
Number of active electrons = 9
EMax =   4.10e-02
thresh =   1.00e-06
Generating Pseudo-Fermi distribution of occupation numbers.
--
# Rescaled active electrons =      9.000
Writing occupation numbers to disk ...
---- Fractional Occupation Number Information End ----

  199   -1105.2118855498      4.10E-02

---- Fractional Occupation Number Information ----
Temperature =    300.000 K
Fermi level =  -0.339547 Hartree
HOMO-LUMO gap =   0.032001 Hartree
Number of active orbitals = 18
Number of active electrons = 9
EMax =   3.39e-02
thresh =   1.00e-06
Generating Pseudo-Fermi distribution of occupation numbers.
--
# Rescaled active electrons =      9.000
Writing occupation numbers to disk ...
---- Fractional Occupation Number Information End ----


---- Fractional Occupation Number Information ----
Temperature =    300.000 K
Fermi level =  -0.348863 Hartree
HOMO-LUMO gap =   0.055673 Hartree
Number of active orbitals = 18
Number of active electrons = 9
EMax =   3.39e-02
thresh =   1.00e-06
Generating Pseudo-Fermi distribution of occupation numbers.
--
# Rescaled active electrons =      9.000
Writing occupation numbers to disk ...
---- Fractional Occupation Number Information End ----

  200   -1104.0613212496      3.39E-02    Convergence failure

 Q-Chem fatal error occurred in module /project/projectdirs/jcesr/qchem/qc44/cnl_qc441/compile/cori/qc_src/scfman/scfman.C, line 4525:

 SCF failed to converge

