srun -N 1 --ntasks-per-node 16 --nodelist nid01048 /global/project/projectdirs/jcesr/qchem/qc44/cnl_qc441/dist/exe/qcprog.cori.exe .pt_charged_dft_120.0.in.36786.qcin.1 /dev/shm/eg_qchem/qchem36786/
Process 0 of 16 is on nid01048 - thread support 0
Process 1 of 16 is on nid01048 - thread support 0
Process 2 of 16 is on nid01048 - thread support 0
Process 3 of 16 is on nid01048 - thread support 0
Process 4 of 16 is on nid01048 - thread support 0
Process 5 of 16 is on nid01048 - thread support 0
Process 6 of 16 is on nid01048 - thread support 0
Process 15 of 16 is on nid01048 - thread support 0
initial socket setup ...start
initial socket setup ...done 
now start server 0 ... 
nid01048 10.128.4
Q-Chem Developer Version! Running on 10.128.4.*
                  Welcome to Q-Chem
     A Quantum Leap Into The Future Of Chemistry


 Q-Chem 4.4, Q-Chem, Inc., Pleasanton, CA (2016)

 Y. Shao,  Z. Gan,  E. Epifanovsky,  A. T. B. Gilbert,  M. Wormit,  
 J. Kussmann,  A. W. Lange,  A. Behn,  J. Deng,  X. Feng,  D. Ghosh,  
 M. Goldey,  P. R. Horn,  L. D. Jacobson,  I. Kaliman,  F.Rob,  
 R. Z. Khaliullin,  T. Kus,  A. Landau,  J. Liu,  E. I. Proynov,  Y. M. Rhee,  
 R. M. Richard,  M. A. Rohrdanz,  R. P. Steele,  E. J. Sundstrom,  
 H. L. Woodcock III,  P. M. Zimmerman,  D. Zuev,  B. Albrecht,  E. Alguire,  
 B. Austin,  S. A. Baeppler,  G. J. O. Beran,  Y. A. Bernard,  E. Berquist,  
 K. Brandhorst,  K. B. Bravaya,  S. T. Brown,  D. Casanova,  C.-M. Chang,  
 Y. Chen,  S. H. Chien,  K. D. Closser,  M. P. Coons,  D. L. Crittenden,  
 S. Dasgupta,  M. Diedenhofen,  R. A. DiStasio Jr.,  H. Do,  A. D. Dutoi,  
 R. G. Edgar,  P.-T. Fang,  S. Fatehi,  Q. Feng,  L. Fusti-Molnar,  
 A. Ghysels,  A. Golubeva-Zadorozhnaya,  J. Gomes,  A. Gunina,  
 M. W. D. Hanson-Heine,  P. H. P. Harbach,  A. W. Hauser,  E. G. Hohenstein,  
 Z. C. Holden,  K. Hui,  T.-C. Jagau,  H. Ji,  B. Kaduk,  K. Khistyaev,  
 Jaehoon Kim,  Jihan Kim,  R. A. King,  P. Klunzinger,  D. Kosenkov,  
 T. Kowalczyk,  C. M. Krauter,  A. Kunitsa,  K. U. Lao,  A. Laurent,  
 K. V. Lawler,  D. Lefrancois,  S. Lehtola,  S. V. Levchenko,  C. Y. Lin,  
 Y.-S. Lin,  F. Liu,  E. Livshits,  R. C. Lochan,  A. Luenser,  P. Manohar,  
 S. F. Manzer,  S.-P. Mao,  Y. Mao,  N. Mardirossian,  A. V. Marenich,  
 L. A. Martinez-Martinez,  S. A. Maurer,  N. J. Mayhall,  J.-M. Mewes,  
 A. F. Morrison,  K. Nanda,  C. M. Oana,  R. Olivares-Amaya,  D. P. O'Neill,  
 J. A. Parkhill,  T. M. Perrine,  R. Peverati,  P. A. Pieniazek,  F. Plasser,  
 A. Prociuk,  D. R. Rehn,  E. Rosta,  N. J. Russ,  N. Sergueev,  
 S. M. Sharada,  S. Sharma,  D. W. Small,  A. Sodt,  T. Stauch,  T. Stein,  
 D. Stuck,  Y.-C. Su,  A. J. W. Thom,  T. Tsuchimochi,  L. Vogt,  O. Vydrov,  
 T. Wang,  M. A. Watson,  J. Wenzel,  A. White,  C. F. Williams,  
 V. Vanovschi,  S. Yeganeh,  S. R. Yost,  Z.-Q. You,  I. Y. Zhang,  X. Zhang,  
 Y. Zhao,  B. R. Brooks,  G. K. L. Chan,  D. M. Chipman,  C. J. Cramer,  
 W. A. Goddard III,  M. S. Gordon,  W. J. Hehre,  A. Klamt,  
 H. F. Schaefer III,  M. W. Schmidt,  C. D. Sherrill,  D. G. Truhlar,  
 A. Warshel,  X. Xu,  A. Aspuru-Guzik,  R. Baer,  A. T. Bell,  N. A. Besley,  
 J.-D. Chai,  A. Dreuw,  B. D. Dunietz,  T. R. Furlani,  S. R. Gwaltney,  
 C.-P. Hsu,  Y. Jung,  J. Kong,  D. S. Lambrecht,  W. Liang,  C. Ochsenfeld,  
 V. A. Rassolov,  L. V. Slipchenko,  J. E. Subotnik,  T. Van Voorhis,  
 J. M. Herbert,  A. I. Krylov,  P. M. W. Gill,  M. Head-Gordon

 Contributors to earlier versions of Q-Chem not listed above: 
 R. D. Adamson,  J. Baker,  E. F. C. Byrd,  A. K. Chakraborty,  C.-L. Cheng,  
 H. Dachsel,  R. J. Doerksen,  G. Hawkins,  A. Heyden,  S. Hirata,  
 G. Kedziora,  F. J. Keil,  C. Kelley,  P. P. Korambath,  W. Kurlancheek,  
 A. M. Lee,  M. S. Lee,  D. Liotard,  I. Lotan,  P. E. Maslen,  N. Nair,  
 D. Neuhauser,  R. Olson,  B. Peters,  J. Ritchie,  N. E. Schultz,  
 N. Shenvi,  A. C. Simmonett,  K. S. Thanthiriwatte,  Q. Wu,  W. Zhang

 Please cite Q-Chem as follows:
 Y. Shao et al., Mol. Phys. 113, 184-215 (2015)
 DOI: 10.1080/00268976.2014.952696

 Q-Chem 4.4.1 for Intel X86 EM64T Linux

 Parts of Q-Chem use Armadillo 5.200.1 (Boston Tea Smuggler).
 http://arma.sourceforge.net/

 Q-Chem begins on Wed Sep  7 00:42:49 2016  

Host: nid01047
0

     Scratch files written to /dev/shm/eg_qchem/qchem36786.0//
 Parallel job on  16  processors

Checking the input file for inconsistencies... 	...done.

--------------------------------------------------------------
User input:
--------------------------------------------------------------
$comment
<SCF Fix Strategy>{
    "current_method_id": 6, 
    "methods": [
        "increase_iter", 
        "diis_gdm", 
        "gwh", 
        "rca", 
        "gdm", 
        "core+gdm", 
        "fon"
    ], 
    "version": 2.0
}</SCF Fix Strategy>
$end


$molecule
 -1  2
 S           1.83794975       -1.27576249       -0.14871336
 C           3.23937819       -0.19806434       -0.14823333
 C           2.83626844        1.12431397       -0.14890172
 C           1.43724334        1.31134696       -0.14931220
 C           0.69606563        0.10654716       -0.14908151
 H           0.95807640        2.28459073       -0.14860036
 C          -0.69610330       -0.10652413       -0.14907621
 S          -1.72159102        0.51530536        1.18373377
 C          -1.51885959       -0.77832731       -1.08322801
 C          -3.18745653       -0.14139080        0.44520574
 C          -2.88785527       -0.78749268       -0.73968826
 H          -3.64950064       -1.26271370       -1.35354878
 H           4.24016475       -0.60708034       -0.14954918
 H           3.54430111        1.94981573       -0.14910914
 H          -4.14640738       -0.00570996        0.92569878
 H          -1.11780213       -1.24124003       -1.97858806
$end


$rem
          jobtype = opt
         exchange = b3lyp
            basis = 6-31++g**
     fon_e_thresh = 6
         fon_norb = 9
        fon_t_end = 300
      fon_t_start = 300
   max_scf_cycles = 200
       mem_static = 100
        mem_total = 1500
      occupations = 2
    scf_algorithm = diis
  scf_convergence = 7
        scf_guess = sad
           thresh = 14
$end


$opt
CONSTRAINT
tors 4 5 7 9 120.0
ENDCONSTRAINT
$end

--------------------------------------------------------------
 Atom   8: ( -1.7956484189,  1.0904422437,  0.5844374972)
         ->( -1.7956484037,  1.0904422151,  0.5844375504)
 Atom  10: ( -3.2241712552,  0.1400579056,  0.1583772817)
         ->( -3.2241712758,  0.1400580371,  0.1583770809)
 Atom  11: ( -2.8605756155, -1.0047455135, -0.5260244189)
         ->( -2.8605756161, -1.0047455256, -0.5260243445)
 Atom   9: ( -1.4710682753, -1.1533986918, -0.7245800031)
         ->( -1.4710682843, -1.1533987184, -0.7245799831)
 Atom   7: ( -0.6971433331, -0.0993709970, -0.1851795829)
         ->( -0.6971433401, -0.0993709895, -0.1851796343)
 Atom  16: ( -1.0214292390, -1.9947643022, -1.2410425267)
         ->( -1.0214292478, -1.9947642921, -1.2410425735)
 Atom  14: (  3.5904666496,  1.7288725904, -0.8805134609)
         ->(  3.5904666221,  1.7288725058, -0.8805136896)
 Atom  15: ( -4.2102929773,  0.4863458594,  0.4349964905)
         ->( -4.2102929617,  0.4863457901,  0.4349966232)
 ----------------------------------------------------------------
             Standard Nuclear Orientation (Angstroms)
    I     Atom           X                Y                Z
 ----------------------------------------------------------------
    1      S       1.7956484037    -1.0904422151     0.5844375504
    2      C       3.2241712758    -0.1400580371     0.1583770809
    3      C       2.8605756161     1.0047455256    -0.5260243445
    4      C       1.4710682843     1.1533987184    -0.7245799831
    5      C       0.6971433401     0.0993709895    -0.1851796343
    6      H       1.0214292478     1.9947642921    -1.2410425735
    7      C      -0.6971433401    -0.0993709895    -0.1851796343
    8      S      -1.7956484037     1.0904422151     0.5844375504
    9      C      -1.4710682843    -1.1533987184    -0.7245799831
   10      C      -3.2241712758     0.1400580371     0.1583770809
   11      C      -2.8605756161    -1.0047455256    -0.5260243445
   12      H      -3.5904666221    -1.7288725058    -0.8805136896
   13      H       4.2102929617    -0.4863457901     0.4349966232
   14      H       3.5904666221     1.7288725058    -0.8805136896
   15      H      -4.2102929617     0.4863457901     0.4349966232
   16      H      -1.0214292478    -1.9947642921    -1.2410425735
 ----------------------------------------------------------------
 Molecular Point Group                 C2    NOp =  2
 Largest Abelian Subgroup              C2    NOp =  2
 Nuclear Repulsion Energy =   622.8136382879 hartrees
 There are       44 alpha and       43 beta electrons
 Requested basis set is 6-31++G(d,p)
 There are 76 shells and 234 basis functions

 Total QAlloc Memory Limit   1500 MB
 Mega-Array Size        98 MB
 MEM_STATIC part       100 MB
 A cutoff of  1.0D-14 yielded   2602 shell pairs
 There are     25490 function pairs
 
 -------------------------------------------------------
 OpenMP Integral Computing Module                       
 Release: version 1.0, May 2013, Q-Chem Inc. Pittsburgh 
 -------------------------------------------------------
 Integral Job Info:
 Integral job number is                      11
 Integral operator is                         1
 short-range coefficients                     0
 long-range coefficients              100000000
 Omega coefficients                           0
 if combine SR and LR in K                    0
 Integral screening is                        0
 Integral computing path is                   2
 max size of driver memory is            800000
 size of driver memory is                593474
 size of scratch memory is             15166112
 max col of scratch BK array               1296
 max len of scratch array in speh3          155
 max len of scratch index in speh4           18
 max int batch size is                      520
 min int batch size is                       52
 fixed nKL is                                52
 max L of basis functions is                  2
 order of int derivative is                   0
 number of shells is                         76
 number of basis is                         234
 number of cartesian basis is               234
 number of contracted shell pairs          2602
 number of primitive shell pairs           8592
 maxK2 (contraction) of shell pair           36
 max number of K2 of shell pair               1
 max number of CS2 of shell pair            258
 max number of PS2 of shell pair           1536
 mem total for path MDJ                   51576
 -------------------------------------------------------
 Smallest overlap matrix eigenvalue = 9.35E-07
 Linear dependence detected in AO basis
 Number of orthogonalized atomic orbitals = 233
 Maximum deviation from orthogonality = 3.310E-11

 Scale SEOQF with 1.000000e-01/1.000000e-01/1.000000e-01

 Standard Electronic Orientation quadrupole field applied
 Nucleus-field energy     =     0.0000000180 hartrees
 Guess from superposition of atomic densities
 Warning:  Energy on first SCF cycle will be non-variational

-------------------------------------------------
Fractional occupation number algorithm turned on.
-------------------------------------------------

Initial Temperature =    300.000 K
Final Temperature =    300.000 K
-------------------------------------------------

 An unrestricted hybrid HF-DFT SCF calculation will be
 performed using Pulay DIIS extrapolation
 Exchange:     0.2000 Hartree-Fock + 0.0800 Slater + 0.7200 B88
 Correlation:  0.1900 VWN1RPA + 0.8100 LYP
 Using SG-1 standard quadrature grid
 SCF converges when DIIS error is below 1.0E-07
 Inaccurate integrated density:
   Number of electrons =    87
   Numerical integral  =    86.000117811910
   Relative error      =    -1.1492898714 %

---- Fractional Occupation Number Information ----
Temperature =    300.000 K
Fermi level =  -0.286563 Hartree
HOMO-LUMO gap =   0.021890 Hartree
Number of active orbitals = 18
Number of active electrons = 9
EMax =   4.29e-02
thresh =   1.00e-06
Generating Pseudo-Fermi distribution of occupation numbers.
--
# Rescaled active electrons =      9.000
Writing occupation numbers to disk ...
---- Fractional Occupation Number Information End ----


---- Fractional Occupation Number Information ----
Temperature =    300.000 K
Fermi level =  -0.299369 Hartree
HOMO-LUMO gap =   0.003722 Hartree
Number of active orbitals = 18
Number of active electrons = 9
EMax =   4.29e-02
thresh =   1.00e-06
Generating Pseudo-Fermi distribution of occupation numbers.
--
# Rescaled active electrons =      9.000
Writing occupation numbers to disk ...
---- Fractional Occupation Number Information End ----

 ---------------------------------------
  Cycle       Energy         DIIS Error
 ---------------------------------------
    1   -1106.9951498239      4.29E-02

---- Fractional Occupation Number Information ----
Temperature =    300.000 K
Fermi level =  -0.290370 Hartree
HOMO-LUMO gap =   0.027809 Hartree
Number of active orbitals = 18
Number of active electrons = 9
EMax =   1.59e-01
thresh =   1.00e-06
Generating Pseudo-Fermi distribution of occupation numbers.
--
# Rescaled active electrons =      9.000
Writing occupation numbers to disk ...
---- Fractional Occupation Number Information End ----


---- Fractional Occupation Number Information ----
Temperature =    300.000 K
Fermi level =  -0.303054 Hartree
HOMO-LUMO gap =   0.004856 Hartree
Number of active orbitals = 18
Number of active electrons = 9
EMax =   1.59e-01
thresh =   1.00e-06
Generating Pseudo-Fermi distribution of occupation numbers.
--
# Rescaled active electrons =      9.000
Writing occupation numbers to disk ...
---- Fractional Occupation Number Information End ----

    2   -1085.7644840155      1.59E-01

---- Fractional Occupation Number Information ----
Temperature =    300.000 K
Fermi level =  -0.286473 Hartree
HOMO-LUMO gap =   0.026636 Hartree
Number of active orbitals = 18
Number of active electrons = 9
EMax =   1.49e-01
thresh =   1.00e-06
Generating Pseudo-Fermi distribution of occupation numbers.
--
# Rescaled active electrons =      9.000
Writing occupation numbers to disk ...
---- Fractional Occupation Number Information End ----


---- Fractional Occupation Number Information ----
Temperature =    300.000 K
Fermi level =  -0.296781 Hartree
HOMO-LUMO gap =   0.007463 Hartree
Number of active orbitals = 18
Number of active electrons = 9
EMax =   1.49e-01
thresh =   1.00e-06
Generating Pseudo-Fermi distribution of occupation numbers.
--
# Rescaled active electrons =      9.000
Writing occupation numbers to disk ...
---- Fractional Occupation Number Information End ----

    3   -1079.4168635829      1.49E-01

---- Fractional Occupation Number Information ----
Temperature =    300.000 K
Fermi level =  -0.354378 Hartree
HOMO-LUMO gap =   0.050727 Hartree
Number of active orbitals = 18
Number of active electrons = 9
EMax =   3.50e-01
thresh =   1.00e-06
Generating Pseudo-Fermi distribution of occupation numbers.
--
# Rescaled active electrons =      9.000
Writing occupation numbers to disk ...
---- Fractional Occupation Number Information End ----


---- Fractional Occupation Number Information ----
Temperature =    300.000 K
Fermi level =  -0.389951 Hartree
HOMO-LUMO gap =   0.024645 Hartree
Number of active orbitals = 18
Number of active electrons = 9
EMax =   3.50e-01
thresh =   1.00e-06
Generating Pseudo-Fermi distribution of occupation numbers.
--
# Rescaled active electrons =      9.000
Writing occupation numbers to disk ...
---- Fractional Occupation Number Information End ----

    4   -1071.1402156912      3.50E-01

---- Fractional Occupation Number Information ----
Temperature =    300.000 K
Fermi level =  -0.252215 Hartree
HOMO-LUMO gap =   0.007109 Hartree
Number of active orbitals = 18
Number of active electrons = 9
EMax =   3.34e-01
thresh =   1.00e-06
Generating Pseudo-Fermi distribution of occupation numbers.
--
# Rescaled active electrons =      9.000
Writing occupation numbers to disk ...
---- Fractional Occupation Number Information End ----


---- Fractional Occupation Number Information ----
Temperature =    300.000 K
Fermi level =  -0.288455 Hartree
HOMO-LUMO gap =   0.012156 Hartree
Number of active orbitals = 18
Number of active electrons = 9
EMax =   3.34e-01
thresh =   1.00e-06
Generating Pseudo-Fermi distribution of occupation numbers.
--
# Rescaled active electrons =      9.000
Writing occupation numbers to disk ...
---- Fractional Occupation Number Information End ----

    5   -1187.2929107003      3.34E-01

---- Fractional Occupation Number Information ----
Temperature =    300.000 K
Fermi level =  -0.260627 Hartree
HOMO-LUMO gap =   0.010090 Hartree
Number of active orbitals = 18
Number of active electrons = 9
EMax =   5.77e-01
thresh =   1.00e-06
Generating Pseudo-Fermi distribution of occupation numbers.
--
# Rescaled active electrons =      9.000
Writing occupation numbers to disk ...
---- Fractional Occupation Number Information End ----


---- Fractional Occupation Number Information ----
Temperature =    300.000 K
Fermi level =  -0.288145 Hartree
HOMO-LUMO gap =   0.013666 Hartree
Number of active orbitals = 18
Number of active electrons = 9
EMax =   5.77e-01
thresh =   1.00e-06
Generating Pseudo-Fermi distribution of occupation numbers.
--
# Rescaled active electrons =      9.000
Writing occupation numbers to disk ...
---- Fractional Occupation Number Information End ----

    6   -1157.8780370195      5.77E-01

---- Fractional Occupation Number Information ----
Temperature =    300.000 K
Fermi level =  -0.281577 Hartree
HOMO-LUMO gap =   0.029008 Hartree
Number of active orbitals = 18
Number of active electrons = 9
EMax =   1.10e-01
thresh =   1.00e-06
Generating Pseudo-Fermi distribution of occupation numbers.
--
# Rescaled active electrons =      9.000
Writing occupation numbers to disk ...
---- Fractional Occupation Number Information End ----


---- Fractional Occupation Number Information ----
Temperature =    300.000 K
Fermi level =  -0.196773 Hartree
HOMO-LUMO gap =   0.134553 Hartree
Number of active orbitals = 18
Number of active electrons = 9
EMax =   1.10e-01
thresh =   1.00e-06
Generating Pseudo-Fermi distribution of occupation numbers.
--
# Rescaled active electrons =      9.000
Writing occupation numbers to disk ...
---- Fractional Occupation Number Information End ----

    7   -1107.5491132541      1.10E-01

---- Fractional Occupation Number Information ----
Temperature =    300.000 K
Fermi level =  -0.191429 Hartree
HOMO-LUMO gap =   0.012930 Hartree
Number of active orbitals = 18
Number of active electrons = 9
EMax =   5.27e-02
thresh =   1.00e-06
Generating Pseudo-Fermi distribution of occupation numbers.
--
# Rescaled active electrons =      9.000
Writing occupation numbers to disk ...
---- Fractional Occupation Number Information End ----


---- Fractional Occupation Number Information ----
Temperature =    300.000 K
Fermi level =  -0.202485 Hartree
HOMO-LUMO gap =   0.057240 Hartree
Number of active orbitals = 18
Number of active electrons = 9
EMax =   5.27e-02
thresh =   1.00e-06
Generating Pseudo-Fermi distribution of occupation numbers.
--
# Rescaled active electrons =      9.000
Writing occupation numbers to disk ...
---- Fractional Occupation Number Information End ----

    8   -1100.8243753003      5.27E-02

---- Fractional Occupation Number Information ----
Temperature =    300.000 K
Fermi level =  -0.349991 Hartree
HOMO-LUMO gap =   0.007086 Hartree
Number of active orbitals = 18
Number of active electrons = 9
EMax =   2.04e-01
thresh =   1.00e-06
Generating Pseudo-Fermi distribution of occupation numbers.
--
# Rescaled active electrons =      9.000
Writing occupation numbers to disk ...
---- Fractional Occupation Number Information End ----


---- Fractional Occupation Number Information ----
Temperature =    300.000 K
Fermi level =  -0.363768 Hartree
HOMO-LUMO gap =   0.021651 Hartree
Number of active orbitals = 18
Number of active electrons = 9
EMax =   2.04e-01
thresh =   1.00e-06
Generating Pseudo-Fermi distribution of occupation numbers.
--
# Rescaled active electrons =      9.000
Writing occupation numbers to disk ...
---- Fractional Occupation Number Information End ----

    9   -1106.5886325809      2.04E-01

---- Fractional Occupation Number Information ----
Temperature =    300.000 K
Fermi level =  -0.716524 Hartree
HOMO-LUMO gap =   0.000771 Hartree
Number of active orbitals = 18
Number of active electrons = 9
EMax =   6.13e-02
thresh =   1.00e-06
Generating Pseudo-Fermi distribution of occupation numbers.
--
# Rescaled active electrons =      9.000
Writing occupation numbers to disk ...
---- Fractional Occupation Number Information End ----


---- Fractional Occupation Number Information ----
Temperature =    300.000 K
Fermi level =  -0.735382 Hartree
HOMO-LUMO gap =   0.043677 Hartree
Number of active orbitals = 18
Number of active electrons = 9
EMax =   6.13e-02
thresh =   1.00e-06
Generating Pseudo-Fermi distribution of occupation numbers.
--
# Rescaled active electrons =      9.000
Writing occupation numbers to disk ...
---- Fractional Occupation Number Information End ----

   10   -1101.2703388020      6.13E-02

---- Fractional Occupation Number Information ----
Temperature =    300.000 K
Fermi level =  -0.767174 Hartree
HOMO-LUMO gap =   0.008633 Hartree
Number of active orbitals = 18
Number of active electrons = 9
EMax =   3.25e-02
thresh =   1.00e-06
Generating Pseudo-Fermi distribution of occupation numbers.
--
# Rescaled active electrons =      9.000
Writing occupation numbers to disk ...
---- Fractional Occupation Number Information End ----


---- Fractional Occupation Number Information ----
Temperature =    300.000 K
Fermi level =  -0.817068 Hartree
HOMO-LUMO gap =   0.095925 Hartree
Number of active orbitals = 18
Number of active electrons = 9
EMax =   3.25e-02
thresh =   1.00e-06
Generating Pseudo-Fermi distribution of occupation numbers.
--
# Rescaled active electrons =      9.000
Writing occupation numbers to disk ...
---- Fractional Occupation Number Information End ----

   11   -1090.0944635528      3.25E-02

---- Fractional Occupation Number Information ----
Temperature =    300.000 K
Fermi level =  -0.896088 Hartree
HOMO-LUMO gap =   0.010622 Hartree
Number of active orbitals = 18
Number of active electrons = 9
EMax =   3.30e-02
thresh =   1.00e-06
Generating Pseudo-Fermi distribution of occupation numbers.
--
# Rescaled active electrons =      9.000
Writing occupation numbers to disk ...
---- Fractional Occupation Number Information End ----


---- Fractional Occupation Number Information ----
Temperature =    300.000 K
Fermi level =  -0.911537 Hartree
HOMO-LUMO gap =   0.045474 Hartree
Number of active orbitals = 18
Number of active electrons = 9
EMax =   3.30e-02
thresh =   1.00e-06
Generating Pseudo-Fermi distribution of occupation numbers.
--
# Rescaled active electrons =      9.000
Writing occupation numbers to disk ...
---- Fractional Occupation Number Information End ----

   12   -1068.0299668137      3.30E-02

---- Fractional Occupation Number Information ----
Temperature =    300.000 K
Fermi level =  -0.896149 Hartree
HOMO-LUMO gap =   0.012863 Hartree
Number of active orbitals = 18
Number of active electrons = 9
EMax =   2.94e-02
thresh =   1.00e-06
Generating Pseudo-Fermi distribution of occupation numbers.
--
# Rescaled active electrons =      9.000
Writing occupation numbers to disk ...
---- Fractional Occupation Number Information End ----


---- Fractional Occupation Number Information ----
Temperature =    300.000 K
Fermi level =  -0.911470 Hartree
HOMO-LUMO gap =   0.048485 Hartree
Number of active orbitals = 18
Number of active electrons = 9
EMax =   2.94e-02
thresh =   1.00e-06
Generating Pseudo-Fermi distribution of occupation numbers.
--
# Rescaled active electrons =      9.000
Writing occupation numbers to disk ...
---- Fractional Occupation Number Information End ----

   13   -1071.9523057093      2.94E-02

---- Fractional Occupation Number Information ----
Temperature =    300.000 K
Fermi level =  -0.859934 Hartree
HOMO-LUMO gap =   0.046585 Hartree
Number of active orbitals = 18
Number of active electrons = 9
EMax =   2.84e-02
thresh =   1.00e-06
Generating Pseudo-Fermi distribution of occupation numbers.
--
# Rescaled active electrons =      9.000
Writing occupation numbers to disk ...
---- Fractional Occupation Number Information End ----


---- Fractional Occupation Number Information ----
Temperature =    300.000 K
Fermi level =  -0.884631 Hartree
HOMO-LUMO gap =   0.016942 Hartree
Number of active orbitals = 18
Number of active electrons = 9
EMax =   2.84e-02
thresh =   1.00e-06
Generating Pseudo-Fermi distribution of occupation numbers.
--
# Rescaled active electrons =      9.000
Writing occupation numbers to disk ...
---- Fractional Occupation Number Information End ----

   14   -1073.7556756473      2.84E-02

---- Fractional Occupation Number Information ----
Temperature =    300.000 K
Fermi level =  -0.813006 Hartree
HOMO-LUMO gap =   0.050828 Hartree
Number of active orbitals = 18
Number of active electrons = 9
EMax =   2.57e-02
thresh =   1.00e-06
Generating Pseudo-Fermi distribution of occupation numbers.
--
# Rescaled active electrons =      9.000
Writing occupation numbers to disk ...
---- Fractional Occupation Number Information End ----


---- Fractional Occupation Number Information ----
Temperature =    300.000 K
Fermi level =  -0.847228 Hartree
HOMO-LUMO gap =   0.029562 Hartree
Number of active orbitals = 18
Number of active electrons = 9
EMax =   2.57e-02
thresh =   1.00e-06
Generating Pseudo-Fermi distribution of occupation numbers.
--
# Rescaled active electrons =      9.000
Writing occupation numbers to disk ...
---- Fractional Occupation Number Information End ----

   15   -1087.5926263929      2.57E-02

---- Fractional Occupation Number Information ----
Temperature =    300.000 K
Fermi level =  -0.833177 Hartree
HOMO-LUMO gap =   0.011040 Hartree
Number of active orbitals = 18
Number of active electrons = 9
EMax =   2.75e-02
thresh =   1.00e-06
Generating Pseudo-Fermi distribution of occupation numbers.
--
# Rescaled active electrons =      9.000
Writing occupation numbers to disk ...
---- Fractional Occupation Number Information End ----


---- Fractional Occupation Number Information ----
Temperature =    300.000 K
Fermi level =  -0.870903 Hartree
HOMO-LUMO gap =   0.043865 Hartree
Number of active orbitals = 18
Number of active electrons = 9
EMax =   2.75e-02
thresh =   1.00e-06
Generating Pseudo-Fermi distribution of occupation numbers.
--
# Rescaled active electrons =      9.000
Writing occupation numbers to disk ...
---- Fractional Occupation Number Information End ----

   16   -1086.6803914305      2.75E-02

---- Fractional Occupation Number Information ----
Temperature =    300.000 K
Fermi level =  -0.789954 Hartree
HOMO-LUMO gap =   0.043144 Hartree
Number of active orbitals = 18
Number of active electrons = 9
EMax =   2.04e-02
thresh =   1.00e-06
Generating Pseudo-Fermi distribution of occupation numbers.
--
# Rescaled active electrons =      9.000
Writing occupation numbers to disk ...
---- Fractional Occupation Number Information End ----


---- Fractional Occupation Number Information ----
Temperature =    300.000 K
Fermi level =  -0.810965 Hartree
HOMO-LUMO gap =   0.000402 Hartree
Number of active orbitals = 18
Number of active electrons = 9
EMax =   2.04e-02
thresh =   1.00e-06
Generating Pseudo-Fermi distribution of occupation numbers.
--
# Rescaled active electrons =      9.000
Writing occupation numbers to disk ...
---- Fractional Occupation Number Information End ----

   17   -1091.8723600967      2.04E-02

---- Fractional Occupation Number Information ----
Temperature =    300.000 K
Fermi level =  -0.696506 Hartree
HOMO-LUMO gap =   0.021835 Hartree
Number of active orbitals = 18
Number of active electrons = 9
EMax =   8.07e-01
thresh =   1.00e-06
Generating Pseudo-Fermi distribution of occupation numbers.
--
# Rescaled active electrons =      9.000
Writing occupation numbers to disk ...
---- Fractional Occupation Number Information End ----


---- Fractional Occupation Number Information ----
Temperature =    300.000 K
Fermi level =  -0.696222 Hartree
HOMO-LUMO gap =   0.011359 Hartree
Number of active orbitals = 18
Number of active electrons = 9
EMax =   8.07e-01
thresh =   1.00e-06
Generating Pseudo-Fermi distribution of occupation numbers.
--
# Rescaled active electrons =      9.000
Writing occupation numbers to disk ...
---- Fractional Occupation Number Information End ----

   18   -1145.4429711211      8.07E-01

---- Fractional Occupation Number Information ----
Temperature =    300.000 K
Fermi level =  -0.555765 Hartree
HOMO-LUMO gap =   0.007420 Hartree
Number of active orbitals = 18
Number of active electrons = 9
EMax =   1.09e-02
thresh =   1.00e-06
Generating Pseudo-Fermi distribution of occupation numbers.
--
# Rescaled active electrons =      9.000
Writing occupation numbers to disk ...
---- Fractional Occupation Number Information End ----


---- Fractional Occupation Number Information ----
Temperature =    300.000 K
Fermi level =  -0.573764 Hartree
HOMO-LUMO gap =   0.074227 Hartree
Number of active orbitals = 18
Number of active electrons = 9
EMax =   1.09e-02
thresh =   1.00e-06
Generating Pseudo-Fermi distribution of occupation numbers.
--
# Rescaled active electrons =      9.000
Writing occupation numbers to disk ...
---- Fractional Occupation Number Information End ----

   19   -1104.6673862508      1.09E-02

---- Fractional Occupation Number Information ----
Temperature =    300.000 K
Fermi level =  -0.594078 Hartree
HOMO-LUMO gap =   0.012361 Hartree
Number of active orbitals = 18
Number of active electrons = 9
EMax =   3.17e-02
thresh =   1.00e-06
Generating Pseudo-Fermi distribution of occupation numbers.
--
# Rescaled active electrons =      9.000
Writing occupation numbers to disk ...
---- Fractional Occupation Number Information End ----


---- Fractional Occupation Number Information ----
Temperature =    300.000 K
Fermi level =  -0.591822 Hartree
HOMO-LUMO gap =   0.023174 Hartree
Number of active orbitals = 18
Number of active electrons = 9
EMax =   3.17e-02
thresh =   1.00e-06
Generating Pseudo-Fermi distribution of occupation numbers.
--
# Rescaled active electrons =      9.000
Writing occupation numbers to disk ...
---- Fractional Occupation Number Information End ----

   20   -1104.4973798711      3.17E-02

---- Fractional Occupation Number Information ----
Temperature =    300.000 K
Fermi level =  -0.630086 Hartree
HOMO-LUMO gap =   0.013488 Hartree
Number of active orbitals = 18
Number of active electrons = 9
EMax =   3.68e-02
thresh =   1.00e-06
Generating Pseudo-Fermi distribution of occupation numbers.
--
# Rescaled active electrons =      9.000
Writing occupation numbers to disk ...
---- Fractional Occupation Number Information End ----


---- Fractional Occupation Number Information ----
Temperature =    300.000 K
Fermi level =  -0.646170 Hartree
HOMO-LUMO gap =   0.046351 Hartree
Number of active orbitals = 18
Number of active electrons = 9
EMax =   3.68e-02
thresh =   1.00e-06
Generating Pseudo-Fermi distribution of occupation numbers.
--
# Rescaled active electrons =      9.000
Writing occupation numbers to disk ...
---- Fractional Occupation Number Information End ----

   21   -1100.5167152836      3.68E-02

---- Fractional Occupation Number Information ----
Temperature =    300.000 K
Fermi level =  -0.645757 Hartree
HOMO-LUMO gap =   0.012196 Hartree
Number of active orbitals = 18
Number of active electrons = 9
EMax =   3.49e-02
thresh =   1.00e-06
Generating Pseudo-Fermi distribution of occupation numbers.
--
# Rescaled active electrons =      9.000
Writing occupation numbers to disk ...
---- Fractional Occupation Number Information End ----


---- Fractional Occupation Number Information ----
Temperature =    300.000 K
Fermi level =  -0.685601 Hartree
HOMO-LUMO gap =   0.093053 Hartree
Number of active orbitals = 18
Number of active electrons = 9
EMax =   3.49e-02
thresh =   1.00e-06
Generating Pseudo-Fermi distribution of occupation numbers.
--
# Rescaled active electrons =      9.000
Writing occupation numbers to disk ...
---- Fractional Occupation Number Information End ----

   22   -1093.1962177724      3.49E-02

---- Fractional Occupation Number Information ----
Temperature =    300.000 K
Fermi level =  -0.643865 Hartree
HOMO-LUMO gap =   0.013829 Hartree
Number of active orbitals = 18
Number of active electrons = 9
EMax =   3.84e-02
thresh =   1.00e-06
Generating Pseudo-Fermi distribution of occupation numbers.
--
# Rescaled active electrons =      9.000
Writing occupation numbers to disk ...
---- Fractional Occupation Number Information End ----


---- Fractional Occupation Number Information ----
Temperature =    300.000 K
Fermi level =  -0.641199 Hartree
HOMO-LUMO gap =   0.005942 Hartree
Number of active orbitals = 18
Number of active electrons = 9
EMax =   3.84e-02
thresh =   1.00e-06
Generating Pseudo-Fermi distribution of occupation numbers.
--
# Rescaled active electrons =      9.000
Writing occupation numbers to disk ...
---- Fractional Occupation Number Information End ----

   23   -1093.6844938358      3.84E-02

---- Fractional Occupation Number Information ----
Temperature =    300.000 K
Fermi level =  -0.655729 Hartree
HOMO-LUMO gap =   0.016262 Hartree
Number of active orbitals = 18
Number of active electrons = 9
EMax =   5.56e-02
thresh =   1.00e-06
Generating Pseudo-Fermi distribution of occupation numbers.
--
# Rescaled active electrons =      9.000
Writing occupation numbers to disk ...
---- Fractional Occupation Number Information End ----


---- Fractional Occupation Number Information ----
Temperature =    300.000 K
Fermi level =  -0.673084 Hartree
HOMO-LUMO gap =   0.058298 Hartree
Number of active orbitals = 18
Number of active electrons = 9
EMax =   5.56e-02
thresh =   1.00e-06
Generating Pseudo-Fermi distribution of occupation numbers.
--
# Rescaled active electrons =      9.000
Writing occupation numbers to disk ...
---- Fractional Occupation Number Information End ----

   24   -1089.7913878395      5.56E-02

---- Fractional Occupation Number Information ----
Temperature =    300.000 K
Fermi level =  -0.650260 Hartree
HOMO-LUMO gap =   0.017252 Hartree
Number of active orbitals = 18
Number of active electrons = 9
EMax =   5.07e-02
thresh =   1.00e-06
Generating Pseudo-Fermi distribution of occupation numbers.
--
# Rescaled active electrons =      9.000
Writing occupation numbers to disk ...
---- Fractional Occupation Number Information End ----


---- Fractional Occupation Number Information ----
Temperature =    300.000 K
Fermi level =  -0.681174 Hartree
HOMO-LUMO gap =   0.100454 Hartree
Number of active orbitals = 18
Number of active electrons = 9
EMax =   5.07e-02
thresh =   1.00e-06
Generating Pseudo-Fermi distribution of occupation numbers.
--
# Rescaled active electrons =      9.000
Writing occupation numbers to disk ...
---- Fractional Occupation Number Information End ----

   25   -1092.0843175047      5.07E-02

---- Fractional Occupation Number Information ----
Temperature =    300.000 K
Fermi level =  -0.650816 Hartree
HOMO-LUMO gap =   0.024555 Hartree
Number of active orbitals = 18
Number of active electrons = 9
EMax =   4.08e-02
thresh =   1.00e-06
Generating Pseudo-Fermi distribution of occupation numbers.
--
# Rescaled active electrons =      9.000
Writing occupation numbers to disk ...
---- Fractional Occupation Number Information End ----


---- Fractional Occupation Number Information ----
Temperature =    300.000 K
Fermi level =  -0.650237 Hartree
HOMO-LUMO gap =   0.043732 Hartree
Number of active orbitals = 18
Number of active electrons = 9
EMax =   4.08e-02
thresh =   1.00e-06
Generating Pseudo-Fermi distribution of occupation numbers.
--
# Rescaled active electrons =      9.000
Writing occupation numbers to disk ...
---- Fractional Occupation Number Information End ----

   26   -1097.3112544715      4.08E-02

---- Fractional Occupation Number Information ----
Temperature =    300.000 K
Fermi level =  -0.672724 Hartree
HOMO-LUMO gap =   0.030379 Hartree
Number of active orbitals = 18
Number of active electrons = 9
EMax =   4.43e-02
thresh =   1.00e-06
Generating Pseudo-Fermi distribution of occupation numbers.
--
# Rescaled active electrons =      9.000
Writing occupation numbers to disk ...
---- Fractional Occupation Number Information End ----


---- Fractional Occupation Number Information ----
Temperature =    300.000 K
Fermi level =  -0.655995 Hartree
HOMO-LUMO gap =   0.018044 Hartree
Number of active orbitals = 18
Number of active electrons = 9
EMax =   4.43e-02
thresh =   1.00e-06
Generating Pseudo-Fermi distribution of occupation numbers.
--
# Rescaled active electrons =      9.000
Writing occupation numbers to disk ...
---- Fractional Occupation Number Information End ----

   27   -1106.7547047983      4.43E-02

---- Fractional Occupation Number Information ----
Temperature =    300.000 K
Fermi level =  -0.668647 Hartree
HOMO-LUMO gap =   0.020066 Hartree
Number of active orbitals = 18
Number of active electrons = 9
EMax =   3.83e-02
thresh =   1.00e-06
Generating Pseudo-Fermi distribution of occupation numbers.
--
# Rescaled active electrons =      9.000
Writing occupation numbers to disk ...
---- Fractional Occupation Number Information End ----


---- Fractional Occupation Number Information ----
Temperature =    300.000 K
Fermi level =  -0.646918 Hartree
HOMO-LUMO gap =   0.007060 Hartree
Number of active orbitals = 18
Number of active electrons = 9
EMax =   3.83e-02
thresh =   1.00e-06
Generating Pseudo-Fermi distribution of occupation numbers.
--
# Rescaled active electrons =      9.000
Writing occupation numbers to disk ...
---- Fractional Occupation Number Information End ----

   28   -1105.3472179640      3.83E-02

---- Fractional Occupation Number Information ----
Temperature =    300.000 K
Fermi level =  -0.664606 Hartree
HOMO-LUMO gap =   0.005400 Hartree
Number of active orbitals = 18
Number of active electrons = 9
EMax =   2.81e-01
thresh =   1.00e-06
Generating Pseudo-Fermi distribution of occupation numbers.
--
# Rescaled active electrons =      9.000
Writing occupation numbers to disk ...
---- Fractional Occupation Number Information End ----


---- Fractional Occupation Number Information ----
Temperature =    300.000 K
Fermi level =  -0.652328 Hartree
HOMO-LUMO gap =   0.025121 Hartree
Number of active orbitals = 18
Number of active electrons = 9
EMax =   2.81e-01
thresh =   1.00e-06
Generating Pseudo-Fermi distribution of occupation numbers.
--
# Rescaled active electrons =      9.000
Writing occupation numbers to disk ...
---- Fractional Occupation Number Information End ----

   29   -1083.6597177166      2.81E-01

---- Fractional Occupation Number Information ----
Temperature =    300.000 K
Fermi level =  -0.661829 Hartree
HOMO-LUMO gap =   0.006005 Hartree
Number of active orbitals = 18
Number of active electrons = 9
EMax =   8.19e-01
thresh =   1.00e-06
Generating Pseudo-Fermi distribution of occupation numbers.
--
# Rescaled active electrons =      9.000
Writing occupation numbers to disk ...
---- Fractional Occupation Number Information End ----


---- Fractional Occupation Number Information ----
Temperature =    300.000 K
Fermi level =  -0.643598 Hartree
HOMO-LUMO gap =   0.028000 Hartree
Number of active orbitals = 18
Number of active electrons = 9
EMax =   8.19e-01
thresh =   1.00e-06
Generating Pseudo-Fermi distribution of occupation numbers.
--
# Rescaled active electrons =      9.000
Writing occupation numbers to disk ...
---- Fractional Occupation Number Information End ----

   30   -1047.5305129995      8.19E-01

---- Fractional Occupation Number Information ----
Temperature =    300.000 K
Fermi level =  -0.655359 Hartree
HOMO-LUMO gap =   0.009453 Hartree
Number of active orbitals = 18
Number of active electrons = 9
EMax =   1.32e+00
thresh =   1.00e-06
Generating Pseudo-Fermi distribution of occupation numbers.
--
# Rescaled active electrons =      9.000
Writing occupation numbers to disk ...
---- Fractional Occupation Number Information End ----


---- Fractional Occupation Number Information ----
Temperature =    300.000 K
Fermi level =  -0.645689 Hartree
HOMO-LUMO gap =   0.017469 Hartree
Number of active orbitals = 18
Number of active electrons = 9
EMax =   1.32e+00
thresh =   1.00e-06
Generating Pseudo-Fermi distribution of occupation numbers.
--
# Rescaled active electrons =      9.000
Writing occupation numbers to disk ...
---- Fractional Occupation Number Information End ----

   31   -1034.4660983100      1.32E+00

---- Fractional Occupation Number Information ----
Temperature =    300.000 K
Fermi level =  -0.660171 Hartree
HOMO-LUMO gap =   0.011864 Hartree
Number of active orbitals = 18
Number of active electrons = 9
EMax =   9.42e-01
thresh =   1.00e-06
Generating Pseudo-Fermi distribution of occupation numbers.
--
# Rescaled active electrons =      9.000
Writing occupation numbers to disk ...
---- Fractional Occupation Number Information End ----


---- Fractional Occupation Number Information ----
Temperature =    300.000 K
Fermi level =  -0.647032 Hartree
HOMO-LUMO gap =   0.027130 Hartree
Number of active orbitals = 18
Number of active electrons = 9
EMax =   9.42e-01
thresh =   1.00e-06
Generating Pseudo-Fermi distribution of occupation numbers.
--
# Rescaled active electrons =      9.000
Writing occupation numbers to disk ...
---- Fractional Occupation Number Information End ----

   32   -1055.7685697795      9.42E-01

---- Fractional Occupation Number Information ----
Temperature =    300.000 K
Fermi level =  -0.664499 Hartree
HOMO-LUMO gap =   0.011956 Hartree
Number of active orbitals = 18
Number of active electrons = 9
EMax =   9.04e-01
thresh =   1.00e-06
Generating Pseudo-Fermi distribution of occupation numbers.
--
# Rescaled active electrons =      9.000
Writing occupation numbers to disk ...
---- Fractional Occupation Number Information End ----


---- Fractional Occupation Number Information ----
Temperature =    300.000 K
Fermi level =  -0.652364 Hartree
HOMO-LUMO gap =   0.022912 Hartree
Number of active orbitals = 18
Number of active electrons = 9
EMax =   9.04e-01
thresh =   1.00e-06
Generating Pseudo-Fermi distribution of occupation numbers.
--
# Rescaled active electrons =      9.000
Writing occupation numbers to disk ...
---- Fractional Occupation Number Information End ----

   33   -1061.6611216240      9.04E-01

---- Fractional Occupation Number Information ----
Temperature =    300.000 K
Fermi level =  -0.750846 Hartree
HOMO-LUMO gap =   0.015932 Hartree
Number of active orbitals = 18
Number of active electrons = 9
EMax =   7.29e-01
thresh =   1.00e-06
Generating Pseudo-Fermi distribution of occupation numbers.
--
# Rescaled active electrons =      9.000
Writing occupation numbers to disk ...
---- Fractional Occupation Number Information End ----


---- Fractional Occupation Number Information ----
Temperature =    300.000 K
Fermi level =  -0.746514 Hartree
HOMO-LUMO gap =   0.008859 Hartree
Number of active orbitals = 18
Number of active electrons = 9
EMax =   7.29e-01
thresh =   1.00e-06
Generating Pseudo-Fermi distribution of occupation numbers.
--
# Rescaled active electrons =      9.000
Writing occupation numbers to disk ...
---- Fractional Occupation Number Information End ----

   34   -1066.8726162244      7.29E-01

---- Fractional Occupation Number Information ----
Temperature =    300.000 K
Fermi level =  -0.739515 Hartree
HOMO-LUMO gap =   0.001777 Hartree
Number of active orbitals = 18
Number of active electrons = 9
EMax =   2.77e-01
thresh =   1.00e-06
Generating Pseudo-Fermi distribution of occupation numbers.
--
# Rescaled active electrons =      9.000
Writing occupation numbers to disk ...
---- Fractional Occupation Number Information End ----


---- Fractional Occupation Number Information ----
Temperature =    300.000 K
Fermi level =  -0.718933 Hartree
HOMO-LUMO gap =   0.039105 Hartree
Number of active orbitals = 18
Number of active electrons = 9
EMax =   2.77e-01
thresh =   1.00e-06
Generating Pseudo-Fermi distribution of occupation numbers.
--
# Rescaled active electrons =      9.000
Writing occupation numbers to disk ...
---- Fractional Occupation Number Information End ----

   35   -1083.0057918630      2.77E-01

---- Fractional Occupation Number Information ----
Temperature =    300.000 K
Fermi level =  -0.716509 Hartree
HOMO-LUMO gap =   0.019342 Hartree
Number of active orbitals = 18
Number of active electrons = 9
EMax =   1.60e+00
thresh =   1.00e-06
Generating Pseudo-Fermi distribution of occupation numbers.
--
# Rescaled active electrons =      9.000
Writing occupation numbers to disk ...
---- Fractional Occupation Number Information End ----


---- Fractional Occupation Number Information ----
Temperature =    300.000 K
Fermi level =  -0.679432 Hartree
HOMO-LUMO gap =   0.038930 Hartree
Number of active orbitals = 18
Number of active electrons = 9
EMax =   1.60e+00
thresh =   1.00e-06
Generating Pseudo-Fermi distribution of occupation numbers.
--
# Rescaled active electrons =      9.000
Writing occupation numbers to disk ...
---- Fractional Occupation Number Information End ----

   36   -1001.7364700689      1.60E+00

---- Fractional Occupation Number Information ----
Temperature =    300.000 K
Fermi level =  -0.707265 Hartree
HOMO-LUMO gap =   0.014975 Hartree
Number of active orbitals = 18
Number of active electrons = 9
EMax =   2.88e-01
thresh =   1.00e-06
Generating Pseudo-Fermi distribution of occupation numbers.
--
# Rescaled active electrons =      9.000
Writing occupation numbers to disk ...
---- Fractional Occupation Number Information End ----


---- Fractional Occupation Number Information ----
Temperature =    300.000 K
Fermi level =  -0.698389 Hartree
HOMO-LUMO gap =   0.003553 Hartree
Number of active orbitals = 18
Number of active electrons = 9
EMax =   2.88e-01
thresh =   1.00e-06
Generating Pseudo-Fermi distribution of occupation numbers.
--
# Rescaled active electrons =      9.000
Writing occupation numbers to disk ...
---- Fractional Occupation Number Information End ----

   37   -1008.2838357737      2.88E-01

---- Fractional Occupation Number Information ----
Temperature =    300.000 K
Fermi level =  -0.671191 Hartree
HOMO-LUMO gap =   0.022541 Hartree
Number of active orbitals = 18
Number of active electrons = 9
EMax =   7.89e-02
thresh =   1.00e-06
Generating Pseudo-Fermi distribution of occupation numbers.
--
# Rescaled active electrons =      9.000
Writing occupation numbers to disk ...
---- Fractional Occupation Number Information End ----


---- Fractional Occupation Number Information ----
Temperature =    300.000 K
Fermi level =  -0.685971 Hartree
HOMO-LUMO gap =   0.060654 Hartree
Number of active orbitals = 18
Number of active electrons = 9
EMax =   7.89e-02
thresh =   1.00e-06
Generating Pseudo-Fermi distribution of occupation numbers.
--
# Rescaled active electrons =      9.000
Writing occupation numbers to disk ...
---- Fractional Occupation Number Information End ----

   38   -1058.9999083994      7.89E-02

---- Fractional Occupation Number Information ----
Temperature =    300.000 K
Fermi level =  -0.692368 Hartree
HOMO-LUMO gap =   0.028982 Hartree
Number of active orbitals = 18
Number of active electrons = 9
EMax =   4.05e-02
thresh =   1.00e-06
Generating Pseudo-Fermi distribution of occupation numbers.
--
# Rescaled active electrons =      9.000
Writing occupation numbers to disk ...
---- Fractional Occupation Number Information End ----


---- Fractional Occupation Number Information ----
Temperature =    300.000 K
Fermi level =  -0.719500 Hartree
HOMO-LUMO gap =   0.105556 Hartree
Number of active orbitals = 18
Number of active electrons = 9
EMax =   4.05e-02
thresh =   1.00e-06
Generating Pseudo-Fermi distribution of occupation numbers.
--
# Rescaled active electrons =      9.000
Writing occupation numbers to disk ...
---- Fractional Occupation Number Information End ----

   39   -1116.6855506786      4.05E-02

---- Fractional Occupation Number Information ----
Temperature =    300.000 K
Fermi level =  -0.679623 Hartree
HOMO-LUMO gap =   0.032925 Hartree
Number of active orbitals = 18
Number of active electrons = 9
EMax =   3.95e-02
thresh =   1.00e-06
Generating Pseudo-Fermi distribution of occupation numbers.
--
# Rescaled active electrons =      9.000
Writing occupation numbers to disk ...
---- Fractional Occupation Number Information End ----


---- Fractional Occupation Number Information ----
Temperature =    300.000 K
Fermi level =  -0.696122 Hartree
HOMO-LUMO gap =   0.107677 Hartree
Number of active orbitals = 18
Number of active electrons = 9
EMax =   3.95e-02
thresh =   1.00e-06
Generating Pseudo-Fermi distribution of occupation numbers.
--
# Rescaled active electrons =      9.000
Writing occupation numbers to disk ...
---- Fractional Occupation Number Information End ----

   40   -1103.9934306435      3.95E-02

---- Fractional Occupation Number Information ----
Temperature =    300.000 K
Fermi level =  -0.645257 Hartree
HOMO-LUMO gap =   0.017506 Hartree
Number of active orbitals = 18
Number of active electrons = 9
EMax =   3.23e-02
thresh =   1.00e-06
Generating Pseudo-Fermi distribution of occupation numbers.
--
# Rescaled active electrons =      9.000
Writing occupation numbers to disk ...
---- Fractional Occupation Number Information End ----


---- Fractional Occupation Number Information ----
Temperature =    300.000 K
Fermi level =  -0.664857 Hartree
HOMO-LUMO gap =   0.041263 Hartree
Number of active orbitals = 18
Number of active electrons = 9
EMax =   3.23e-02
thresh =   1.00e-06
Generating Pseudo-Fermi distribution of occupation numbers.
--
# Rescaled active electrons =      9.000
Writing occupation numbers to disk ...
---- Fractional Occupation Number Information End ----

   41   -1099.5819234365      3.23E-02

---- Fractional Occupation Number Information ----
Temperature =    300.000 K
Fermi level =  -0.670163 Hartree
HOMO-LUMO gap =   0.026221 Hartree
Number of active orbitals = 18
Number of active electrons = 9
EMax =   5.34e-02
thresh =   1.00e-06
Generating Pseudo-Fermi distribution of occupation numbers.
--
# Rescaled active electrons =      9.000
Writing occupation numbers to disk ...
---- Fractional Occupation Number Information End ----


---- Fractional Occupation Number Information ----
Temperature =    300.000 K
Fermi level =  -0.637620 Hartree
HOMO-LUMO gap =   0.009709 Hartree
Number of active orbitals = 18
Number of active electrons = 9
EMax =   5.34e-02
thresh =   1.00e-06
Generating Pseudo-Fermi distribution of occupation numbers.
--
# Rescaled active electrons =      9.000
Writing occupation numbers to disk ...
---- Fractional Occupation Number Information End ----

   42   -1092.4903197806      5.34E-02

---- Fractional Occupation Number Information ----
Temperature =    300.000 K
Fermi level =  -0.628485 Hartree
HOMO-LUMO gap =   0.015118 Hartree
Number of active orbitals = 18
Number of active electrons = 9
EMax =   7.09e-02
thresh =   1.00e-06
Generating Pseudo-Fermi distribution of occupation numbers.
--
# Rescaled active electrons =      9.000
Writing occupation numbers to disk ...
---- Fractional Occupation Number Information End ----


---- Fractional Occupation Number Information ----
Temperature =    300.000 K
Fermi level =  -0.611468 Hartree
HOMO-LUMO gap =   0.000017 Hartree
Number of active orbitals = 18
Number of active electrons = 9
EMax =   7.09e-02
thresh =   1.00e-06
Generating Pseudo-Fermi distribution of occupation numbers.
--
# Rescaled active electrons =      9.000
Writing occupation numbers to disk ...
---- Fractional Occupation Number Information End ----

   43   -1093.8553871402      7.09E-02

---- Fractional Occupation Number Information ----
Temperature =    300.000 K
Fermi level =  -0.544845 Hartree
HOMO-LUMO gap =   0.020412 Hartree
Number of active orbitals = 18
Number of active electrons = 9
EMax =   6.57e-03
thresh =   1.00e-06
Generating Pseudo-Fermi distribution of occupation numbers.
--
# Rescaled active electrons =      9.000
Writing occupation numbers to disk ...
---- Fractional Occupation Number Information End ----


---- Fractional Occupation Number Information ----
Temperature =    300.000 K
Fermi level =  -0.533844 Hartree
HOMO-LUMO gap =   0.006028 Hartree
Number of active orbitals = 18
Number of active electrons = 9
EMax =   6.57e-03
thresh =   1.00e-06
Generating Pseudo-Fermi distribution of occupation numbers.
--
# Rescaled active electrons =      9.000
Writing occupation numbers to disk ...
---- Fractional Occupation Number Information End ----

   44   -1106.6521722803      6.57E-03

---- Fractional Occupation Number Information ----
Temperature =    300.000 K
Fermi level =  -0.540363 Hartree
HOMO-LUMO gap =   0.019942 Hartree
Number of active orbitals = 18
Number of active electrons = 9
EMax =   5.46e-02
thresh =   1.00e-06
Generating Pseudo-Fermi distribution of occupation numbers.
--
# Rescaled active electrons =      9.000
Writing occupation numbers to disk ...
---- Fractional Occupation Number Information End ----


---- Fractional Occupation Number Information ----
Temperature =    300.000 K
Fermi level =  -0.553533 Hartree
HOMO-LUMO gap =   0.020258 Hartree
Number of active orbitals = 18
Number of active electrons = 9
EMax =   5.46e-02
thresh =   1.00e-06
Generating Pseudo-Fermi distribution of occupation numbers.
--
# Rescaled active electrons =      9.000
Writing occupation numbers to disk ...
---- Fractional Occupation Number Information End ----

   45   -1097.9428324282      5.46E-02

---- Fractional Occupation Number Information ----
Temperature =    300.000 K
Fermi level =  -0.580804 Hartree
HOMO-LUMO gap =   0.026553 Hartree
Number of active orbitals = 18
Number of active electrons = 9
EMax =   2.29e-02
thresh =   1.00e-06
Generating Pseudo-Fermi distribution of occupation numbers.
--
# Rescaled active electrons =      9.000
Writing occupation numbers to disk ...
---- Fractional Occupation Number Information End ----


---- Fractional Occupation Number Information ----
Temperature =    300.000 K
Fermi level =  -0.567235 Hartree
HOMO-LUMO gap =   0.010611 Hartree
Number of active orbitals = 18
Number of active electrons = 9
EMax =   2.29e-02
thresh =   1.00e-06
Generating Pseudo-Fermi distribution of occupation numbers.
--
# Rescaled active electrons =      9.000
Writing occupation numbers to disk ...
---- Fractional Occupation Number Information End ----

   46   -1105.0645847976      2.29E-02

---- Fractional Occupation Number Information ----
Temperature =    300.000 K
Fermi level =  -0.581982 Hartree
HOMO-LUMO gap =   0.025880 Hartree
Number of active orbitals = 18
Number of active electrons = 9
EMax =   3.07e-02
thresh =   1.00e-06
Generating Pseudo-Fermi distribution of occupation numbers.
--
# Rescaled active electrons =      9.000
Writing occupation numbers to disk ...
---- Fractional Occupation Number Information End ----


---- Fractional Occupation Number Information ----
Temperature =    300.000 K
Fermi level =  -0.573389 Hartree
HOMO-LUMO gap =   0.001832 Hartree
Number of active orbitals = 18
Number of active electrons = 9
EMax =   3.07e-02
thresh =   1.00e-06
Generating Pseudo-Fermi distribution of occupation numbers.
--
# Rescaled active electrons =      9.000
Writing occupation numbers to disk ...
---- Fractional Occupation Number Information End ----

   47   -1097.4182321521      3.07E-02

---- Fractional Occupation Number Information ----
Temperature =    300.000 K
Fermi level =  -0.593901 Hartree
HOMO-LUMO gap =   0.025649 Hartree
Number of active orbitals = 18
Number of active electrons = 9
EMax =   1.03e-02
thresh =   1.00e-06
Generating Pseudo-Fermi distribution of occupation numbers.
--
# Rescaled active electrons =      9.000
Writing occupation numbers to disk ...
---- Fractional Occupation Number Information End ----


---- Fractional Occupation Number Information ----
Temperature =    300.000 K
Fermi level =  -0.583297 Hartree
HOMO-LUMO gap =   0.004848 Hartree
Number of active orbitals = 18
Number of active electrons = 9
EMax =   1.03e-02
thresh =   1.00e-06
Generating Pseudo-Fermi distribution of occupation numbers.
--
# Rescaled active electrons =      9.000
Writing occupation numbers to disk ...
---- Fractional Occupation Number Information End ----

   48   -1101.2444999308      1.03E-02

---- Fractional Occupation Number Information ----
Temperature =    300.000 K
Fermi level =  -0.605017 Hartree
HOMO-LUMO gap =   0.022546 Hartree
Number of active orbitals = 18
Number of active electrons = 9
EMax =   2.22e-02
thresh =   1.00e-06
Generating Pseudo-Fermi distribution of occupation numbers.
--
# Rescaled active electrons =      9.000
Writing occupation numbers to disk ...
---- Fractional Occupation Number Information End ----


---- Fractional Occupation Number Information ----
Temperature =    300.000 K
Fermi level =  -0.590886 Hartree
HOMO-LUMO gap =   0.005581 Hartree
Number of active orbitals = 18
Number of active electrons = 9
EMax =   2.22e-02
thresh =   1.00e-06
Generating Pseudo-Fermi distribution of occupation numbers.
--
# Rescaled active electrons =      9.000
Writing occupation numbers to disk ...
---- Fractional Occupation Number Information End ----

   49   -1105.0803978571      2.22E-02

---- Fractional Occupation Number Information ----
Temperature =    300.000 K
Fermi level =  -0.601803 Hartree
HOMO-LUMO gap =   0.025968 Hartree
Number of active orbitals = 18
Number of active electrons = 9
EMax =   4.39e-02
thresh =   1.00e-06
Generating Pseudo-Fermi distribution of occupation numbers.
--
# Rescaled active electrons =      9.000
Writing occupation numbers to disk ...
---- Fractional Occupation Number Information End ----


---- Fractional Occupation Number Information ----
Temperature =    300.000 K
Fermi level =  -0.589968 Hartree
HOMO-LUMO gap =   0.005004 Hartree
Number of active orbitals = 18
Number of active electrons = 9
EMax =   4.39e-02
thresh =   1.00e-06
Generating Pseudo-Fermi distribution of occupation numbers.
--
# Rescaled active electrons =      9.000
Writing occupation numbers to disk ...
---- Fractional Occupation Number Information End ----

   50   -1096.5739454048      4.39E-02

---- Fractional Occupation Number Information ----
Temperature =    300.000 K
Fermi level =  -0.592062 Hartree
HOMO-LUMO gap =   0.003496 Hartree
Number of active orbitals = 18
Number of active electrons = 9
EMax =   2.37e-02
thresh =   1.00e-06
Generating Pseudo-Fermi distribution of occupation numbers.
--
# Rescaled active electrons =      9.000
Writing occupation numbers to disk ...
---- Fractional Occupation Number Information End ----


---- Fractional Occupation Number Information ----
Temperature =    300.000 K
Fermi level =  -0.579907 Hartree
HOMO-LUMO gap =   0.015259 Hartree
Number of active orbitals = 18
Number of active electrons = 9
EMax =   2.37e-02
thresh =   1.00e-06
Generating Pseudo-Fermi distribution of occupation numbers.
--
# Rescaled active electrons =      9.000
Writing occupation numbers to disk ...
---- Fractional Occupation Number Information End ----

   51   -1105.2829533790      2.37E-02

---- Fractional Occupation Number Information ----
Temperature =    300.000 K
Fermi level =  -0.598978 Hartree
HOMO-LUMO gap =   0.029208 Hartree
Number of active orbitals = 18
Number of active electrons = 9
EMax =   1.71e-01
thresh =   1.00e-06
Generating Pseudo-Fermi distribution of occupation numbers.
--
# Rescaled active electrons =      9.000
Writing occupation numbers to disk ...
---- Fractional Occupation Number Information End ----


---- Fractional Occupation Number Information ----
Temperature =    300.000 K
Fermi level =  -0.578936 Hartree
HOMO-LUMO gap =   0.022058 Hartree
Number of active orbitals = 18
Number of active electrons = 9
EMax =   1.71e-01
thresh =   1.00e-06
Generating Pseudo-Fermi distribution of occupation numbers.
--
# Rescaled active electrons =      9.000
Writing occupation numbers to disk ...
---- Fractional Occupation Number Information End ----

   52   -1080.4562081726      1.71E-01

---- Fractional Occupation Number Information ----
Temperature =    300.000 K
Fermi level =  -0.578136 Hartree
HOMO-LUMO gap =   0.016278 Hartree
Number of active orbitals = 18
Number of active electrons = 9
EMax =   1.73e-02
thresh =   1.00e-06
Generating Pseudo-Fermi distribution of occupation numbers.
--
# Rescaled active electrons =      9.000
Writing occupation numbers to disk ...
---- Fractional Occupation Number Information End ----


---- Fractional Occupation Number Information ----
Temperature =    300.000 K
Fermi level =  -0.565164 Hartree
HOMO-LUMO gap =   0.036161 Hartree
Number of active orbitals = 18
Number of active electrons = 9
EMax =   1.73e-02
thresh =   1.00e-06
Generating Pseudo-Fermi distribution of occupation numbers.
--
# Rescaled active electrons =      9.000
Writing occupation numbers to disk ...
---- Fractional Occupation Number Information End ----

   53   -1101.3050521294      1.73E-02

---- Fractional Occupation Number Information ----
Temperature =    300.000 K
Fermi level =  -0.571585 Hartree
HOMO-LUMO gap =   0.028566 Hartree
Number of active orbitals = 18
Number of active electrons = 9
EMax =   4.82e-03
thresh =   1.00e-06
Generating Pseudo-Fermi distribution of occupation numbers.
--
# Rescaled active electrons =      9.000
Writing occupation numbers to disk ...
---- Fractional Occupation Number Information End ----


---- Fractional Occupation Number Information ----
Temperature =    300.000 K
Fermi level =  -0.564510 Hartree
HOMO-LUMO gap =   0.036863 Hartree
Number of active orbitals = 18
Number of active electrons = 9
EMax =   4.82e-03
thresh =   1.00e-06
Generating Pseudo-Fermi distribution of occupation numbers.
--
# Rescaled active electrons =      9.000
Writing occupation numbers to disk ...
---- Fractional Occupation Number Information End ----

   54   -1102.0631305385      4.82E-03

---- Fractional Occupation Number Information ----
Temperature =    300.000 K
Fermi level =  -0.583270 Hartree
HOMO-LUMO gap =   0.019868 Hartree
Number of active orbitals = 18
Number of active electrons = 9
EMax =   2.62e-02
thresh =   1.00e-06
Generating Pseudo-Fermi distribution of occupation numbers.
--
# Rescaled active electrons =      9.000
Writing occupation numbers to disk ...
---- Fractional Occupation Number Information End ----


---- Fractional Occupation Number Information ----
Temperature =    300.000 K
Fermi level =  -0.579101 Hartree
HOMO-LUMO gap =   0.044266 Hartree
Number of active orbitals = 18
Number of active electrons = 9
EMax =   2.62e-02
thresh =   1.00e-06
Generating Pseudo-Fermi distribution of occupation numbers.
--
# Rescaled active electrons =      9.000
Writing occupation numbers to disk ...
---- Fractional Occupation Number Information End ----

   55   -1093.6596863572      2.62E-02

---- Fractional Occupation Number Information ----
Temperature =    300.000 K
Fermi level =  -0.569678 Hartree
HOMO-LUMO gap =   0.014045 Hartree
Number of active orbitals = 18
Number of active electrons = 9
EMax =   3.03e-02
thresh =   1.00e-06
Generating Pseudo-Fermi distribution of occupation numbers.
--
# Rescaled active electrons =      9.000
Writing occupation numbers to disk ...
---- Fractional Occupation Number Information End ----


---- Fractional Occupation Number Information ----
Temperature =    300.000 K
Fermi level =  -0.581715 Hartree
HOMO-LUMO gap =   0.040441 Hartree
Number of active orbitals = 18
Number of active electrons = 9
EMax =   3.03e-02
thresh =   1.00e-06
Generating Pseudo-Fermi distribution of occupation numbers.
--
# Rescaled active electrons =      9.000
Writing occupation numbers to disk ...
---- Fractional Occupation Number Information End ----

   56   -1089.3888915563      3.03E-02

---- Fractional Occupation Number Information ----
Temperature =    300.000 K
Fermi level =  -0.569793 Hartree
HOMO-LUMO gap =   0.014962 Hartree
Number of active orbitals = 18
Number of active electrons = 9
EMax =   4.11e-02
thresh =   1.00e-06
Generating Pseudo-Fermi distribution of occupation numbers.
--
# Rescaled active electrons =      9.000
Writing occupation numbers to disk ...
---- Fractional Occupation Number Information End ----


---- Fractional Occupation Number Information ----
Temperature =    300.000 K
Fermi level =  -0.581904 Hartree
HOMO-LUMO gap =   0.040218 Hartree
Number of active orbitals = 18
Number of active electrons = 9
EMax =   4.11e-02
thresh =   1.00e-06
Generating Pseudo-Fermi distribution of occupation numbers.
--
# Rescaled active electrons =      9.000
Writing occupation numbers to disk ...
---- Fractional Occupation Number Information End ----

   57   -1084.9111869373      4.11E-02

---- Fractional Occupation Number Information ----
Temperature =    300.000 K
Fermi level =  -0.572250 Hartree
HOMO-LUMO gap =   0.027044 Hartree
Number of active orbitals = 18
Number of active electrons = 9
EMax =   4.07e-02
thresh =   1.00e-06
Generating Pseudo-Fermi distribution of occupation numbers.
--
# Rescaled active electrons =      9.000
Writing occupation numbers to disk ...
---- Fractional Occupation Number Information End ----


---- Fractional Occupation Number Information ----
Temperature =    300.000 K
Fermi level =  -0.582682 Hartree
HOMO-LUMO gap =   0.039791 Hartree
Number of active orbitals = 18
Number of active electrons = 9
EMax =   4.07e-02
thresh =   1.00e-06
Generating Pseudo-Fermi distribution of occupation numbers.
--
# Rescaled active electrons =      9.000
Writing occupation numbers to disk ...
---- Fractional Occupation Number Information End ----

   58   -1084.6316600247      4.07E-02

---- Fractional Occupation Number Information ----
Temperature =    300.000 K
Fermi level =  -0.614527 Hartree
HOMO-LUMO gap =   0.007606 Hartree
Number of active orbitals = 18
Number of active electrons = 9
EMax =   3.23e-01
thresh =   1.00e-06
Generating Pseudo-Fermi distribution of occupation numbers.
--
# Rescaled active electrons =      9.000
Writing occupation numbers to disk ...
---- Fractional Occupation Number Information End ----


---- Fractional Occupation Number Information ----
Temperature =    300.000 K
Fermi level =  -0.610830 Hartree
HOMO-LUMO gap =   0.008299 Hartree
Number of active orbitals = 18
Number of active electrons = 9
EMax =   3.23e-01
thresh =   1.00e-06
Generating Pseudo-Fermi distribution of occupation numbers.
--
# Rescaled active electrons =      9.000
Writing occupation numbers to disk ...
---- Fractional Occupation Number Information End ----

   59   -1062.2616664709      3.23E-01

---- Fractional Occupation Number Information ----
Temperature =    300.000 K
Fermi level =  -0.613735 Hartree
HOMO-LUMO gap =   0.009339 Hartree
Number of active orbitals = 18
Number of active electrons = 9
EMax =   2.74e-01
thresh =   1.00e-06
Generating Pseudo-Fermi distribution of occupation numbers.
--
# Rescaled active electrons =      9.000
Writing occupation numbers to disk ...
---- Fractional Occupation Number Information End ----


---- Fractional Occupation Number Information ----
Temperature =    300.000 K
Fermi level =  -0.609483 Hartree
HOMO-LUMO gap =   0.007547 Hartree
Number of active orbitals = 18
Number of active electrons = 9
EMax =   2.74e-01
thresh =   1.00e-06
Generating Pseudo-Fermi distribution of occupation numbers.
--
# Rescaled active electrons =      9.000
Writing occupation numbers to disk ...
---- Fractional Occupation Number Information End ----

   60   -1051.6986032361      2.74E-01

---- Fractional Occupation Number Information ----
Temperature =    300.000 K
Fermi level =  -0.614022 Hartree
HOMO-LUMO gap =   0.011915 Hartree
Number of active orbitals = 18
Number of active electrons = 9
EMax =   2.06e-01
thresh =   1.00e-06
Generating Pseudo-Fermi distribution of occupation numbers.
--
# Rescaled active electrons =      9.000
Writing occupation numbers to disk ...
---- Fractional Occupation Number Information End ----


---- Fractional Occupation Number Information ----
Temperature =    300.000 K
Fermi level =  -0.610869 Hartree
HOMO-LUMO gap =   0.009617 Hartree
Number of active orbitals = 18
Number of active electrons = 9
EMax =   2.06e-01
thresh =   1.00e-06
Generating Pseudo-Fermi distribution of occupation numbers.
--
# Rescaled active electrons =      9.000
Writing occupation numbers to disk ...
---- Fractional Occupation Number Information End ----

   61   -1057.9522033485      2.06E-01

---- Fractional Occupation Number Information ----
Temperature =    300.000 K
Fermi level =  -0.612904 Hartree
HOMO-LUMO gap =   0.013301 Hartree
Number of active orbitals = 18
Number of active electrons = 9
EMax =   1.96e-01
thresh =   1.00e-06
Generating Pseudo-Fermi distribution of occupation numbers.
--
# Rescaled active electrons =      9.000
Writing occupation numbers to disk ...
---- Fractional Occupation Number Information End ----


---- Fractional Occupation Number Information ----
Temperature =    300.000 K
Fermi level =  -0.609569 Hartree
HOMO-LUMO gap =   0.009958 Hartree
Number of active orbitals = 18
Number of active electrons = 9
EMax =   1.96e-01
thresh =   1.00e-06
Generating Pseudo-Fermi distribution of occupation numbers.
--
# Rescaled active electrons =      9.000
Writing occupation numbers to disk ...
---- Fractional Occupation Number Information End ----

   62   -1056.1204035895      1.96E-01

---- Fractional Occupation Number Information ----
Temperature =    300.000 K
Fermi level =  -0.617873 Hartree
HOMO-LUMO gap =   0.008861 Hartree
Number of active orbitals = 18
Number of active electrons = 9
EMax =   2.48e-01
thresh =   1.00e-06
Generating Pseudo-Fermi distribution of occupation numbers.
--
# Rescaled active electrons =      9.000
Writing occupation numbers to disk ...
---- Fractional Occupation Number Information End ----


---- Fractional Occupation Number Information ----
Temperature =    300.000 K
Fermi level =  -0.614582 Hartree
HOMO-LUMO gap =   0.000637 Hartree
Number of active orbitals = 18
Number of active electrons = 9
EMax =   2.48e-01
thresh =   1.00e-06
Generating Pseudo-Fermi distribution of occupation numbers.
--
# Rescaled active electrons =      9.000
Writing occupation numbers to disk ...
---- Fractional Occupation Number Information End ----

   63   -1049.3803690775      2.48E-01

---- Fractional Occupation Number Information ----
Temperature =    300.000 K
Fermi level =  -0.615431 Hartree
HOMO-LUMO gap =   0.007997 Hartree
Number of active orbitals = 18
Number of active electrons = 9
EMax =   7.07e-02
thresh =   1.00e-06
Generating Pseudo-Fermi distribution of occupation numbers.
--
# Rescaled active electrons =      9.000
Writing occupation numbers to disk ...
---- Fractional Occupation Number Information End ----


---- Fractional Occupation Number Information ----
Temperature =    300.000 K
Fermi level =  -0.613368 Hartree
HOMO-LUMO gap =   0.002591 Hartree
Number of active orbitals = 18
Number of active electrons = 9
EMax =   7.07e-02
thresh =   1.00e-06
Generating Pseudo-Fermi distribution of occupation numbers.
--
# Rescaled active electrons =      9.000
Writing occupation numbers to disk ...
---- Fractional Occupation Number Information End ----

   64   -1074.8571407097      7.07E-02

---- Fractional Occupation Number Information ----
Temperature =    300.000 K
Fermi level =  -0.600641 Hartree
HOMO-LUMO gap =   0.023134 Hartree
Number of active orbitals = 18
Number of active electrons = 9
EMax =   1.65e-01
thresh =   1.00e-06
Generating Pseudo-Fermi distribution of occupation numbers.
--
# Rescaled active electrons =      9.000
Writing occupation numbers to disk ...
---- Fractional Occupation Number Information End ----


---- Fractional Occupation Number Information ----
Temperature =    300.000 K
Fermi level =  -0.605156 Hartree
HOMO-LUMO gap =   0.006724 Hartree
Number of active orbitals = 18
Number of active electrons = 9
EMax =   1.65e-01
thresh =   1.00e-06
Generating Pseudo-Fermi distribution of occupation numbers.
--
# Rescaled active electrons =      9.000
Writing occupation numbers to disk ...
---- Fractional Occupation Number Information End ----

   65   -1062.0003312140      1.65E-01

---- Fractional Occupation Number Information ----
Temperature =    300.000 K
Fermi level =  -0.607959 Hartree
HOMO-LUMO gap =   0.038363 Hartree
Number of active orbitals = 18
Number of active electrons = 9
EMax =   6.15e-02
thresh =   1.00e-06
Generating Pseudo-Fermi distribution of occupation numbers.
--
# Rescaled active electrons =      9.000
Writing occupation numbers to disk ...
---- Fractional Occupation Number Information End ----


---- Fractional Occupation Number Information ----
Temperature =    300.000 K
Fermi level =  -0.617825 Hartree
HOMO-LUMO gap =   0.005178 Hartree
Number of active orbitals = 18
Number of active electrons = 9
EMax =   6.15e-02
thresh =   1.00e-06
Generating Pseudo-Fermi distribution of occupation numbers.
--
# Rescaled active electrons =      9.000
Writing occupation numbers to disk ...
---- Fractional Occupation Number Information End ----

   66   -1088.2059552870      6.15E-02

---- Fractional Occupation Number Information ----
Temperature =    300.000 K
Fermi level =  -0.588904 Hartree
HOMO-LUMO gap =   0.040063 Hartree
Number of active orbitals = 18
Number of active electrons = 9
EMax =   5.06e-02
thresh =   1.00e-06
Generating Pseudo-Fermi distribution of occupation numbers.
--
# Rescaled active electrons =      9.000
Writing occupation numbers to disk ...
---- Fractional Occupation Number Information End ----


---- Fractional Occupation Number Information ----
Temperature =    300.000 K
Fermi level =  -0.599711 Hartree
HOMO-LUMO gap =   0.002840 Hartree
Number of active orbitals = 18
Number of active electrons = 9
EMax =   5.06e-02
thresh =   1.00e-06
Generating Pseudo-Fermi distribution of occupation numbers.
--
# Rescaled active electrons =      9.000
Writing occupation numbers to disk ...
---- Fractional Occupation Number Information End ----

   67   -1091.4322983209      5.06E-02

---- Fractional Occupation Number Information ----
Temperature =    300.000 K
Fermi level =  -0.591182 Hartree
HOMO-LUMO gap =   0.038964 Hartree
Number of active orbitals = 18
Number of active electrons = 9
EMax =   5.17e-02
thresh =   1.00e-06
Generating Pseudo-Fermi distribution of occupation numbers.
--
# Rescaled active electrons =      9.000
Writing occupation numbers to disk ...
---- Fractional Occupation Number Information End ----


---- Fractional Occupation Number Information ----
Temperature =    300.000 K
Fermi level =  -0.598195 Hartree
HOMO-LUMO gap =   0.004199 Hartree
Number of active orbitals = 18
Number of active electrons = 9
EMax =   5.17e-02
thresh =   1.00e-06
Generating Pseudo-Fermi distribution of occupation numbers.
--
# Rescaled active electrons =      9.000
Writing occupation numbers to disk ...
---- Fractional Occupation Number Information End ----

   68   -1091.8481074549      5.17E-02

---- Fractional Occupation Number Information ----
Temperature =    300.000 K
Fermi level =  -0.498370 Hartree
HOMO-LUMO gap =   0.043252 Hartree
Number of active orbitals = 18
Number of active electrons = 9
EMax =   7.38e-02
thresh =   1.00e-06
Generating Pseudo-Fermi distribution of occupation numbers.
--
# Rescaled active electrons =      9.000
Writing occupation numbers to disk ...
---- Fractional Occupation Number Information End ----


---- Fractional Occupation Number Information ----
Temperature =    300.000 K
Fermi level =  -0.491196 Hartree
HOMO-LUMO gap =   0.013904 Hartree
Number of active orbitals = 18
Number of active electrons = 9
EMax =   7.38e-02
thresh =   1.00e-06
Generating Pseudo-Fermi distribution of occupation numbers.
--
# Rescaled active electrons =      9.000
Writing occupation numbers to disk ...
---- Fractional Occupation Number Information End ----

   69   -1086.0842410608      7.38E-02

---- Fractional Occupation Number Information ----
Temperature =    300.000 K
Fermi level =  -0.413042 Hartree
HOMO-LUMO gap =   0.047592 Hartree
Number of active orbitals = 18
Number of active electrons = 9
EMax =   2.01e-02
thresh =   1.00e-06
Generating Pseudo-Fermi distribution of occupation numbers.
--
# Rescaled active electrons =      9.000
Writing occupation numbers to disk ...
---- Fractional Occupation Number Information End ----


---- Fractional Occupation Number Information ----
Temperature =    300.000 K
Fermi level =  -0.399653 Hartree
HOMO-LUMO gap =   0.004754 Hartree
Number of active orbitals = 18
Number of active electrons = 9
EMax =   2.01e-02
thresh =   1.00e-06
Generating Pseudo-Fermi distribution of occupation numbers.
--
# Rescaled active electrons =      9.000
Writing occupation numbers to disk ...
---- Fractional Occupation Number Information End ----

   70   -1100.9029347128      2.01E-02

---- Fractional Occupation Number Information ----
Temperature =    300.000 K
Fermi level =  -0.335564 Hartree
HOMO-LUMO gap =   0.043861 Hartree
Number of active orbitals = 18
Number of active electrons = 9
EMax =   7.66e-02
thresh =   1.00e-06
Generating Pseudo-Fermi distribution of occupation numbers.
--
# Rescaled active electrons =      9.000
Writing occupation numbers to disk ...
---- Fractional Occupation Number Information End ----


---- Fractional Occupation Number Information ----
Temperature =    300.000 K
Fermi level =  -0.358335 Hartree
HOMO-LUMO gap =   0.061288 Hartree
Number of active orbitals = 18
Number of active electrons = 9
EMax =   7.66e-02
thresh =   1.00e-06
Generating Pseudo-Fermi distribution of occupation numbers.
--
# Rescaled active electrons =      9.000
Writing occupation numbers to disk ...
---- Fractional Occupation Number Information End ----

   71   -1098.2164182250      7.66E-02

---- Fractional Occupation Number Information ----
Temperature =    300.000 K
Fermi level =  -0.323354 Hartree
HOMO-LUMO gap =   0.045055 Hartree
Number of active orbitals = 18
Number of active electrons = 9
EMax =   8.46e-01
thresh =   1.00e-06
Generating Pseudo-Fermi distribution of occupation numbers.
--
# Rescaled active electrons =      9.000
Writing occupation numbers to disk ...
---- Fractional Occupation Number Information End ----


---- Fractional Occupation Number Information ----
Temperature =    300.000 K
Fermi level =  -0.330594 Hartree
HOMO-LUMO gap =   0.027492 Hartree
Number of active orbitals = 18
Number of active electrons = 9
EMax =   8.46e-01
thresh =   1.00e-06
Generating Pseudo-Fermi distribution of occupation numbers.
--
# Rescaled active electrons =      9.000
Writing occupation numbers to disk ...
---- Fractional Occupation Number Information End ----

   72    -869.5112198519      8.46E-01

---- Fractional Occupation Number Information ----
Temperature =    300.000 K
Fermi level =  -0.374773 Hartree
HOMO-LUMO gap =   0.009761 Hartree
Number of active orbitals = 18
Number of active electrons = 9
EMax =   4.85e-02
thresh =   1.00e-06
Generating Pseudo-Fermi distribution of occupation numbers.
--
# Rescaled active electrons =      9.000
Writing occupation numbers to disk ...
---- Fractional Occupation Number Information End ----


---- Fractional Occupation Number Information ----
Temperature =    300.000 K
Fermi level =  -0.394824 Hartree
HOMO-LUMO gap =   0.009395 Hartree
Number of active orbitals = 18
Number of active electrons = 9
EMax =   4.85e-02
thresh =   1.00e-06
Generating Pseudo-Fermi distribution of occupation numbers.
--
# Rescaled active electrons =      9.000
Writing occupation numbers to disk ...
---- Fractional Occupation Number Information End ----

[...]
Number of active electrons = 9
EMax =   5.71e-07
thresh =   1.00e-06
---- Fractional Occupation Number Information End ----


---- Fractional Occupation Number Information ----
Temperature =    300.000 K
Fermi level =   0.022469 Hartree
HOMO-LUMO gap =   0.141892 Hartree
Number of active orbitals = 18
Number of active electrons = 9
EMax =   5.71e-07
thresh =   1.00e-06
---- Fractional Occupation Number Information End ----

  178   -1104.8293401739      5.71E-07

---- Fractional Occupation Number Information ----
Temperature =    300.000 K
Fermi level =   0.077180 Hartree
HOMO-LUMO gap =   0.034376 Hartree
Number of active orbitals = 18
Number of active electrons = 9
EMax =   7.48e-07
thresh =   1.00e-06
---- Fractional Occupation Number Information End ----


---- Fractional Occupation Number Information ----
Temperature =    300.000 K
Fermi level =   0.022470 Hartree
HOMO-LUMO gap =   0.141893 Hartree
Number of active orbitals = 18
Number of active electrons = 9
EMax =   7.48e-07
thresh =   1.00e-06
---- Fractional Occupation Number Information End ----

  179   -1104.8293229408      7.48E-07

---- Fractional Occupation Number Information ----
Temperature =    300.000 K
Fermi level =   0.077183 Hartree
HOMO-LUMO gap =   0.034380 Hartree
Number of active orbitals = 18
Number of active electrons = 9
EMax =   6.93e-07
thresh =   1.00e-06
---- Fractional Occupation Number Information End ----


---- Fractional Occupation Number Information ----
Temperature =    300.000 K
Fermi level =   0.022473 Hartree
HOMO-LUMO gap =   0.141896 Hartree
Number of active orbitals = 18
Number of active electrons = 9
EMax =   6.93e-07
thresh =   1.00e-06
---- Fractional Occupation Number Information End ----

  180   -1104.8293237064      6.93E-07

---- Fractional Occupation Number Information ----
Temperature =    300.000 K
Fermi level =   0.077179 Hartree
HOMO-LUMO gap =   0.034373 Hartree
Number of active orbitals = 18
Number of active electrons = 9
EMax =   1.26e-06
thresh =   1.00e-06
Generating Pseudo-Fermi distribution of occupation numbers.
--
# Rescaled active electrons =      9.000
Writing occupation numbers to disk ...
---- Fractional Occupation Number Information End ----


---- Fractional Occupation Number Information ----
Temperature =    300.000 K
Fermi level =   0.022469 Hartree
HOMO-LUMO gap =   0.141888 Hartree
Number of active orbitals = 18
Number of active electrons = 9
EMax =   1.26e-06
thresh =   1.00e-06
Generating Pseudo-Fermi distribution of occupation numbers.
--
# Rescaled active electrons =      9.000
Writing occupation numbers to disk ...
---- Fractional Occupation Number Information End ----

  181   -1104.8293115586      1.26E-06

---- Fractional Occupation Number Information ----
Temperature =    300.000 K
Fermi level =   0.077180 Hartree
HOMO-LUMO gap =   0.034375 Hartree
Number of active orbitals = 18
Number of active electrons = 9
EMax =   1.55e-06
thresh =   1.00e-06
Generating Pseudo-Fermi distribution of occupation numbers.
--
# Rescaled active electrons =      9.000
Writing occupation numbers to disk ...
---- Fractional Occupation Number Information End ----


---- Fractional Occupation Number Information ----
Temperature =    300.000 K
Fermi level =   0.022470 Hartree
HOMO-LUMO gap =   0.141890 Hartree
Number of active orbitals = 18
Number of active electrons = 9
EMax =   1.55e-06
thresh =   1.00e-06
Generating Pseudo-Fermi distribution of occupation numbers.
--
# Rescaled active electrons =      9.000
Writing occupation numbers to disk ...
---- Fractional Occupation Number Information End ----

  182   -1104.8293017458      1.55E-06

---- Fractional Occupation Number Information ----
Temperature =    300.000 K
Fermi level =   0.077173 Hartree
HOMO-LUMO gap =   0.034362 Hartree
Number of active orbitals = 18
Number of active electrons = 9
EMax =   1.16e-06
thresh =   1.00e-06
Generating Pseudo-Fermi distribution of occupation numbers.
--
# Rescaled active electrons =      9.000
Writing occupation numbers to disk ...
---- Fractional Occupation Number Information End ----


---- Fractional Occupation Number Information ----
Temperature =    300.000 K
Fermi level =   0.022462 Hartree
HOMO-LUMO gap =   0.141876 Hartree
Number of active orbitals = 18
Number of active electrons = 9
EMax =   1.16e-06
thresh =   1.00e-06
Generating Pseudo-Fermi distribution of occupation numbers.
--
# Rescaled active electrons =      9.000
Writing occupation numbers to disk ...
---- Fractional Occupation Number Information End ----

  183   -1104.8293161331      1.16E-06

---- Fractional Occupation Number Information ----
Temperature =    300.000 K
Fermi level =   0.077174 Hartree
HOMO-LUMO gap =   0.034364 Hartree
Number of active orbitals = 18
Number of active electrons = 9
EMax =   8.22e-07
thresh =   1.00e-06
---- Fractional Occupation Number Information End ----


---- Fractional Occupation Number Information ----
Temperature =    300.000 K
Fermi level =   0.022463 Hartree
HOMO-LUMO gap =   0.141877 Hartree
Number of active orbitals = 18
Number of active electrons = 9
EMax =   8.22e-07
thresh =   1.00e-06
---- Fractional Occupation Number Information End ----

  184   -1104.8293290586      8.22E-07

---- Fractional Occupation Number Information ----
Temperature =    300.000 K
Fermi level =   0.077176 Hartree
HOMO-LUMO gap =   0.034368 Hartree
Number of active orbitals = 18
Number of active electrons = 9
EMax =   8.00e-07
thresh =   1.00e-06
---- Fractional Occupation Number Information End ----


---- Fractional Occupation Number Information ----
Temperature =    300.000 K
Fermi level =   0.022465 Hartree
HOMO-LUMO gap =   0.141880 Hartree
Number of active orbitals = 18
Number of active electrons = 9
EMax =   8.00e-07
thresh =   1.00e-06
---- Fractional Occupation Number Information End ----

  185   -1104.8293268075      8.00E-07

---- Fractional Occupation Number Information ----
Temperature =    300.000 K
Fermi level =   0.077172 Hartree
HOMO-LUMO gap =   0.034360 Hartree
Number of active orbitals = 18
Number of active electrons = 9
EMax =   4.32e-06
thresh =   1.00e-06
Generating Pseudo-Fermi distribution of occupation numbers.
--
# Rescaled active electrons =      9.000
Writing occupation numbers to disk ...
---- Fractional Occupation Number Information End ----


---- Fractional Occupation Number Information ----
Temperature =    300.000 K
Fermi level =   0.022461 Hartree
HOMO-LUMO gap =   0.141873 Hartree
Number of active orbitals = 18
Number of active electrons = 9
EMax =   4.32e-06
thresh =   1.00e-06
Generating Pseudo-Fermi distribution of occupation numbers.
--
# Rescaled active electrons =      9.000
Writing occupation numbers to disk ...
---- Fractional Occupation Number Information End ----

  186   -1104.8292747201      4.32E-06

---- Fractional Occupation Number Information ----
Temperature =    300.000 K
Fermi level =   0.077173 Hartree
HOMO-LUMO gap =   0.034361 Hartree
Number of active orbitals = 18
Number of active electrons = 9
EMax =   1.97e-06
thresh =   1.00e-06
Generating Pseudo-Fermi distribution of occupation numbers.
--
# Rescaled active electrons =      9.000
Writing occupation numbers to disk ...
---- Fractional Occupation Number Information End ----


---- Fractional Occupation Number Information ----
Temperature =    300.000 K
Fermi level =   0.022462 Hartree
HOMO-LUMO gap =   0.141874 Hartree
Number of active orbitals = 18
Number of active electrons = 9
EMax =   1.97e-06
thresh =   1.00e-06
Generating Pseudo-Fermi distribution of occupation numbers.
--
# Rescaled active electrons =      9.000
Writing occupation numbers to disk ...
---- Fractional Occupation Number Information End ----

  187   -1104.8293394868      1.97E-06

---- Fractional Occupation Number Information ----
Temperature =    300.000 K
Fermi level =   0.077172 Hartree
HOMO-LUMO gap =   0.034361 Hartree
Number of active orbitals = 18
Number of active electrons = 9
EMax =   5.37e-06
thresh =   1.00e-06
Generating Pseudo-Fermi distribution of occupation numbers.
--
# Rescaled active electrons =      9.000
Writing occupation numbers to disk ...
---- Fractional Occupation Number Information End ----


---- Fractional Occupation Number Information ----
Temperature =    300.000 K
Fermi level =   0.022461 Hartree
HOMO-LUMO gap =   0.141873 Hartree
Number of active orbitals = 18
Number of active electrons = 9
EMax =   5.37e-06
thresh =   1.00e-06
Generating Pseudo-Fermi distribution of occupation numbers.
--
# Rescaled active electrons =      9.000
Writing occupation numbers to disk ...
---- Fractional Occupation Number Information End ----

  188   -1104.8292698230      5.37E-06

---- Fractional Occupation Number Information ----
Temperature =    300.000 K
Fermi level =   0.077169 Hartree
HOMO-LUMO gap =   0.034354 Hartree
Number of active orbitals = 18
Number of active electrons = 9
EMax =   4.62e-06
thresh =   1.00e-06
Generating Pseudo-Fermi distribution of occupation numbers.
--
# Rescaled active electrons =      9.000
Writing occupation numbers to disk ...
---- Fractional Occupation Number Information End ----


---- Fractional Occupation Number Information ----
Temperature =    300.000 K
Fermi level =   0.022457 Hartree
HOMO-LUMO gap =   0.141866 Hartree
Number of active orbitals = 18
Number of active electrons = 9
EMax =   4.62e-06
thresh =   1.00e-06
Generating Pseudo-Fermi distribution of occupation numbers.
--
# Rescaled active electrons =      9.000
Writing occupation numbers to disk ...
---- Fractional Occupation Number Information End ----

  189   -1104.8292796629      4.62E-06

---- Fractional Occupation Number Information ----
Temperature =    300.000 K
Fermi level =   0.077173 Hartree
HOMO-LUMO gap =   0.034360 Hartree
Number of active orbitals = 18
Number of active electrons = 9
EMax =   1.72e-06
thresh =   1.00e-06
Generating Pseudo-Fermi distribution of occupation numbers.
--
# Rescaled active electrons =      9.000
Writing occupation numbers to disk ...
---- Fractional Occupation Number Information End ----


---- Fractional Occupation Number Information ----
Temperature =    300.000 K
Fermi level =   0.022461 Hartree
HOMO-LUMO gap =   0.141869 Hartree
Number of active orbitals = 18
Number of active electrons = 9
EMax =   1.72e-06
thresh =   1.00e-06
Generating Pseudo-Fermi distribution of occupation numbers.
--
# Rescaled active electrons =      9.000
Writing occupation numbers to disk ...
---- Fractional Occupation Number Information End ----

  190   -1104.8293348414      1.72E-06

---- Fractional Occupation Number Information ----
Temperature =    300.000 K
Fermi level =   0.077166 Hartree
HOMO-LUMO gap =   0.034350 Hartree
Number of active orbitals = 18
Number of active electrons = 9
EMax =   1.93e-06
thresh =   1.00e-06
Generating Pseudo-Fermi distribution of occupation numbers.
--
# Rescaled active electrons =      9.000
Writing occupation numbers to disk ...
---- Fractional Occupation Number Information End ----


---- Fractional Occupation Number Information ----
Temperature =    300.000 K
Fermi level =   0.022454 Hartree
HOMO-LUMO gap =   0.141860 Hartree
Number of active orbitals = 18
Number of active electrons = 9
EMax =   1.93e-06
thresh =   1.00e-06
Generating Pseudo-Fermi distribution of occupation numbers.
--
# Rescaled active electrons =      9.000
Writing occupation numbers to disk ...
---- Fractional Occupation Number Information End ----

  191   -1104.8293122682      1.93E-06

---- Fractional Occupation Number Information ----
Temperature =    300.000 K
Fermi level =   0.077169 Hartree
HOMO-LUMO gap =   0.034355 Hartree
Number of active orbitals = 18
Number of active electrons = 9
EMax =   3.58e-06
thresh =   1.00e-06
Generating Pseudo-Fermi distribution of occupation numbers.
--
# Rescaled active electrons =      9.000
Writing occupation numbers to disk ...
---- Fractional Occupation Number Information End ----


---- Fractional Occupation Number Information ----
Temperature =    300.000 K
Fermi level =   0.022458 Hartree
HOMO-LUMO gap =   0.141865 Hartree
Number of active orbitals = 18
Number of active electrons = 9
EMax =   3.58e-06
thresh =   1.00e-06
Generating Pseudo-Fermi distribution of occupation numbers.
--
# Rescaled active electrons =      9.000
Writing occupation numbers to disk ...
---- Fractional Occupation Number Information End ----

  192   -1104.8293969276      3.58E-06

---- Fractional Occupation Number Information ----
Temperature =    300.000 K
Fermi level =   0.077170 Hartree
HOMO-LUMO gap =   0.034356 Hartree
Number of active orbitals = 18
Number of active electrons = 9
EMax =   5.34e-06
thresh =   1.00e-06
Generating Pseudo-Fermi distribution of occupation numbers.
--
# Rescaled active electrons =      9.000
Writing occupation numbers to disk ...
---- Fractional Occupation Number Information End ----


---- Fractional Occupation Number Information ----
Temperature =    300.000 K
Fermi level =   0.022458 Hartree
HOMO-LUMO gap =   0.141866 Hartree
Number of active orbitals = 18
Number of active electrons = 9
EMax =   5.34e-06
thresh =   1.00e-06
Generating Pseudo-Fermi distribution of occupation numbers.
--
# Rescaled active electrons =      9.000
Writing occupation numbers to disk ...
---- Fractional Occupation Number Information End ----

  193   -1104.8294230771      5.34E-06

---- Fractional Occupation Number Information ----
Temperature =    300.000 K
Fermi level =   0.077170 Hartree
HOMO-LUMO gap =   0.034356 Hartree
Number of active orbitals = 18
Number of active electrons = 9
EMax =   1.94e-06
thresh =   1.00e-06
Generating Pseudo-Fermi distribution of occupation numbers.
--
# Rescaled active electrons =      9.000
Writing occupation numbers to disk ...
---- Fractional Occupation Number Information End ----


---- Fractional Occupation Number Information ----
Temperature =    300.000 K
Fermi level =   0.022458 Hartree
HOMO-LUMO gap =   0.141866 Hartree
Number of active orbitals = 18
Number of active electrons = 9
EMax =   1.94e-06
thresh =   1.00e-06
Generating Pseudo-Fermi distribution of occupation numbers.
--
# Rescaled active electrons =      9.000
Writing occupation numbers to disk ...
---- Fractional Occupation Number Information End ----

  194   -1104.8293709084      1.94E-06

---- Fractional Occupation Number Information ----
Temperature =    300.000 K
Fermi level =   0.077167 Hartree
HOMO-LUMO gap =   0.034350 Hartree
Number of active orbitals = 18
Number of active electrons = 9
EMax =   2.03e-06
thresh =   1.00e-06
Generating Pseudo-Fermi distribution of occupation numbers.
--
# Rescaled active electrons =      9.000
Writing occupation numbers to disk ...
---- Fractional Occupation Number Information End ----


---- Fractional Occupation Number Information ----
Temperature =    300.000 K
Fermi level =   0.022455 Hartree
HOMO-LUMO gap =   0.141860 Hartree
Number of active orbitals = 18
Number of active electrons = 9
EMax =   2.03e-06
thresh =   1.00e-06
Generating Pseudo-Fermi distribution of occupation numbers.
--
# Rescaled active electrons =      9.000
Writing occupation numbers to disk ...
---- Fractional Occupation Number Information End ----

  195   -1104.8293849608      2.03E-06

---- Fractional Occupation Number Information ----
Temperature =    300.000 K
Fermi level =   0.077167 Hartree
HOMO-LUMO gap =   0.034350 Hartree
Number of active orbitals = 18
Number of active electrons = 9
EMax =   3.15e-06
thresh =   1.00e-06
Generating Pseudo-Fermi distribution of occupation numbers.
--
# Rescaled active electrons =      9.000
Writing occupation numbers to disk ...
---- Fractional Occupation Number Information End ----


---- Fractional Occupation Number Information ----
Temperature =    300.000 K
Fermi level =   0.022455 Hartree
HOMO-LUMO gap =   0.141860 Hartree
Number of active orbitals = 18
Number of active electrons = 9
EMax =   3.15e-06
thresh =   1.00e-06
Generating Pseudo-Fermi distribution of occupation numbers.
--
# Rescaled active electrons =      9.000
Writing occupation numbers to disk ...
---- Fractional Occupation Number Information End ----

  196   -1104.8293899781      3.15E-06

---- Fractional Occupation Number Information ----
Temperature =    300.000 K
Fermi level =   0.077167 Hartree
HOMO-LUMO gap =   0.034351 Hartree
Number of active orbitals = 18
Number of active electrons = 9
EMax =   3.88e-06
thresh =   1.00e-06
Generating Pseudo-Fermi distribution of occupation numbers.
--
# Rescaled active electrons =      9.000
Writing occupation numbers to disk ...
---- Fractional Occupation Number Information End ----


---- Fractional Occupation Number Information ----
Temperature =    300.000 K
Fermi level =   0.022455 Hartree
HOMO-LUMO gap =   0.141860 Hartree
Number of active orbitals = 18
Number of active electrons = 9
EMax =   3.88e-06
thresh =   1.00e-06
Generating Pseudo-Fermi distribution of occupation numbers.
--
# Rescaled active electrons =      9.000
Writing occupation numbers to disk ...
---- Fractional Occupation Number Information End ----

  197   -1104.8293855672      3.88E-06

---- Fractional Occupation Number Information ----
Temperature =    300.000 K
Fermi level =   0.077169 Hartree
HOMO-LUMO gap =   0.034355 Hartree
Number of active orbitals = 18
Number of active electrons = 9
EMax =   4.86e-06
thresh =   1.00e-06
Generating Pseudo-Fermi distribution of occupation numbers.
--
# Rescaled active electrons =      9.000
Writing occupation numbers to disk ...
---- Fractional Occupation Number Information End ----


---- Fractional Occupation Number Information ----
Temperature =    300.000 K
Fermi level =   0.022458 Hartree
HOMO-LUMO gap =   0.141865 Hartree
Number of active orbitals = 18
Number of active electrons = 9
EMax =   4.86e-06
thresh =   1.00e-06
Generating Pseudo-Fermi distribution of occupation numbers.
--
# Rescaled active electrons =      9.000
Writing occupation numbers to disk ...
---- Fractional Occupation Number Information End ----

  198   -1104.8293982867      4.86E-06

---- Fractional Occupation Number Information ----
Temperature =    300.000 K
Fermi level =   0.077170 Hartree
HOMO-LUMO gap =   0.034355 Hartree
Number of active orbitals = 18
Number of active electrons = 9
EMax =   2.61e-06
thresh =   1.00e-06
Generating Pseudo-Fermi distribution of occupation numbers.
--
# Rescaled active electrons =      9.000
Writing occupation numbers to disk ...
---- Fractional Occupation Number Information End ----


---- Fractional Occupation Number Information ----
Temperature =    300.000 K
Fermi level =   0.022458 Hartree
HOMO-LUMO gap =   0.141865 Hartree
Number of active orbitals = 18
Number of active electrons = 9
EMax =   2.61e-06
thresh =   1.00e-06
Generating Pseudo-Fermi distribution of occupation numbers.
--
# Rescaled active electrons =      9.000
Writing occupation numbers to disk ...
---- Fractional Occupation Number Information End ----

  199   -1104.8293591556      2.61E-06

---- Fractional Occupation Number Information ----
Temperature =    300.000 K
Fermi level =   0.077169 Hartree
HOMO-LUMO gap =   0.034354 Hartree
Number of active orbitals = 18
Number of active electrons = 9
EMax =   5.67e-06
thresh =   1.00e-06
Generating Pseudo-Fermi distribution of occupation numbers.
--
# Rescaled active electrons =      9.000
Writing occupation numbers to disk ...
---- Fractional Occupation Number Information End ----


---- Fractional Occupation Number Information ----
Temperature =    300.000 K
Fermi level =   0.022457 Hartree
HOMO-LUMO gap =   0.141863 Hartree
Number of active orbitals = 18
Number of active electrons = 9
EMax =   5.67e-06
thresh =   1.00e-06
Generating Pseudo-Fermi distribution of occupation numbers.
--
# Rescaled active electrons =      9.000
Writing occupation numbers to disk ...
---- Fractional Occupation Number Information End ----

  200   -1104.8293995928      5.67E-06    Convergence failure

 Q-Chem fatal error occurred in module /project/projectdirs/jcesr/qchem/qc44/cnl_qc441/compile/cori/qc_src/scfman/scfman.C, line 4525:

 SCF failed to converge

