srun -N 1 --ntasks-per-node 16 --nodelist nid01047 /global/project/projectdirs/jcesr/qchem/qc44/cnl_qc441/dist/exe/qcprog.cori.exe .pt_charged_dft_-80.0.in.21852.qcin.1 /dev/shm/eg_qchem/qchem21852/
Process 1 of 16 is on nid01047 - thread support 0
Process 2 of 16 is on nid01047 - thread support 0
Process 3 of 16 is on nid01047 - thread support 0
Process 4 of 16 is on nid01047 - thread support 0
Process 5 of 16 is on nid01047 - thread support 0
Process 6 of 16 is on nid01047 - thread support 0
Process 0 of 16 is on nid01047 - thread support 0
Process 15 of 16 is on nid01047 - thread support 0
initial socket setup ...start
initial socket setup ...done 
now start server 0 ... 
nid01047 10.128.4
Q-Chem Developer Version! Running on 10.128.4.*
                  Welcome to Q-Chem
     A Quantum Leap Into The Future Of Chemistry


 Q-Chem 4.4, Q-Chem, Inc., Pleasanton, CA (2016)

 Y. Shao,  Z. Gan,  E. Epifanovsky,  A. T. B. Gilbert,  M. Wormit,  
 J. Kussmann,  A. W. Lange,  A. Behn,  J. Deng,  X. Feng,  D. Ghosh,  
 M. Goldey,  P. R. Horn,  L. D. Jacobson,  I. Kaliman,  F.Rob,  
 R. Z. Khaliullin,  T. Kus,  A. Landau,  J. Liu,  E. I. Proynov,  Y. M. Rhee,  
 R. M. Richard,  M. A. Rohrdanz,  R. P. Steele,  E. J. Sundstrom,  
 H. L. Woodcock III,  P. M. Zimmerman,  D. Zuev,  B. Albrecht,  E. Alguire,  
 B. Austin,  S. A. Baeppler,  G. J. O. Beran,  Y. A. Bernard,  E. Berquist,  
 K. Brandhorst,  K. B. Bravaya,  S. T. Brown,  D. Casanova,  C.-M. Chang,  
 Y. Chen,  S. H. Chien,  K. D. Closser,  M. P. Coons,  D. L. Crittenden,  
 S. Dasgupta,  M. Diedenhofen,  R. A. DiStasio Jr.,  H. Do,  A. D. Dutoi,  
 R. G. Edgar,  P.-T. Fang,  S. Fatehi,  Q. Feng,  L. Fusti-Molnar,  
 A. Ghysels,  A. Golubeva-Zadorozhnaya,  J. Gomes,  A. Gunina,  
 M. W. D. Hanson-Heine,  P. H. P. Harbach,  A. W. Hauser,  E. G. Hohenstein,  
 Z. C. Holden,  K. Hui,  T.-C. Jagau,  H. Ji,  B. Kaduk,  K. Khistyaev,  
 Jaehoon Kim,  Jihan Kim,  R. A. King,  P. Klunzinger,  D. Kosenkov,  
 T. Kowalczyk,  C. M. Krauter,  A. Kunitsa,  K. U. Lao,  A. Laurent,  
 K. V. Lawler,  D. Lefrancois,  S. Lehtola,  S. V. Levchenko,  C. Y. Lin,  
 Y.-S. Lin,  F. Liu,  E. Livshits,  R. C. Lochan,  A. Luenser,  P. Manohar,  
 S. F. Manzer,  S.-P. Mao,  Y. Mao,  N. Mardirossian,  A. V. Marenich,  
 L. A. Martinez-Martinez,  S. A. Maurer,  N. J. Mayhall,  J.-M. Mewes,  
 A. F. Morrison,  K. Nanda,  C. M. Oana,  R. Olivares-Amaya,  D. P. O'Neill,  
 J. A. Parkhill,  T. M. Perrine,  R. Peverati,  P. A. Pieniazek,  F. Plasser,  
 A. Prociuk,  D. R. Rehn,  E. Rosta,  N. J. Russ,  N. Sergueev,  
 S. M. Sharada,  S. Sharma,  D. W. Small,  A. Sodt,  T. Stauch,  T. Stein,  
 D. Stuck,  Y.-C. Su,  A. J. W. Thom,  T. Tsuchimochi,  L. Vogt,  O. Vydrov,  
 T. Wang,  M. A. Watson,  J. Wenzel,  A. White,  C. F. Williams,  
 V. Vanovschi,  S. Yeganeh,  S. R. Yost,  Z.-Q. You,  I. Y. Zhang,  X. Zhang,  
 Y. Zhao,  B. R. Brooks,  G. K. L. Chan,  D. M. Chipman,  C. J. Cramer,  
 W. A. Goddard III,  M. S. Gordon,  W. J. Hehre,  A. Klamt,  
 H. F. Schaefer III,  M. W. Schmidt,  C. D. Sherrill,  D. G. Truhlar,  
 A. Warshel,  X. Xu,  A. Aspuru-Guzik,  R. Baer,  A. T. Bell,  N. A. Besley,  
 J.-D. Chai,  A. Dreuw,  B. D. Dunietz,  T. R. Furlani,  S. R. Gwaltney,  
 C.-P. Hsu,  Y. Jung,  J. Kong,  D. S. Lambrecht,  W. Liang,  C. Ochsenfeld,  
 V. A. Rassolov,  L. V. Slipchenko,  J. E. Subotnik,  T. Van Voorhis,  
 J. M. Herbert,  A. I. Krylov,  P. M. W. Gill,  M. Head-Gordon

 Contributors to earlier versions of Q-Chem not listed above: 
 R. D. Adamson,  J. Baker,  E. F. C. Byrd,  A. K. Chakraborty,  C.-L. Cheng,  
 H. Dachsel,  R. J. Doerksen,  G. Hawkins,  A. Heyden,  S. Hirata,  
 G. Kedziora,  F. J. Keil,  C. Kelley,  P. P. Korambath,  W. Kurlancheek,  
 A. M. Lee,  M. S. Lee,  D. Liotard,  I. Lotan,  P. E. Maslen,  N. Nair,  
 D. Neuhauser,  R. Olson,  B. Peters,  J. Ritchie,  N. E. Schultz,  
 N. Shenvi,  A. C. Simmonett,  K. S. Thanthiriwatte,  Q. Wu,  W. Zhang

 Please cite Q-Chem as follows:
 Y. Shao et al., Mol. Phys. 113, 184-215 (2015)
 DOI: 10.1080/00268976.2014.952696

 Q-Chem 4.4.1 for Intel X86 EM64T Linux

 Parts of Q-Chem use Armadillo 5.200.1 (Boston Tea Smuggler).
 http://arma.sourceforge.net/

 Q-Chem begins on Tue Sep  6 23:34:37 2016  

Host: nid01047
0

     Scratch files written to /dev/shm/eg_qchem/qchem21852.0//
 Parallel job on  16  processors

Checking the input file for inconsistencies... 	...done.

--------------------------------------------------------------
User input:
--------------------------------------------------------------
$comment
<SCF Fix Strategy>{
    "current_method_id": 1, 
    "methods": [
        "increase_iter", 
        "rca_diis", 
        "gwh", 
        "gdm", 
        "rca", 
        "core+rca", 
        "fon"
    ], 
    "version": 2.0
}</SCF Fix Strategy>
$end


$molecule
 -1  2
 S           1.83794975       -1.27576249       -0.14871336
 C           3.23937819       -0.19806434       -0.14823333
 C           2.83626844        1.12431397       -0.14890172
 C           1.43724334        1.31134696       -0.14931220
 C           0.69606563        0.10654716       -0.14908151
 H           0.95807640        2.28459073       -0.14860036
 C          -0.69610330       -0.10652413       -0.14907621
 S          -1.56466122       -0.51011616       -1.66479388
 C          -1.62886182       -0.05954317        0.91329911
 C          -3.11771906       -0.59707423       -0.82462437
 C          -2.95751676       -0.33230582        0.52274909
 H          -3.79142947       -0.33531260        1.22084935
 H           4.24016475       -0.60708034       -0.14954918
 H           3.54430111        1.94981573       -0.14910914
 H          -4.01960488       -0.83427149       -1.37162440
 H          -1.33355283        0.16853292        1.93191523
$end


$rem
         jobtype = opt
        exchange = b3lyp
           basis = 6-31++g**
  max_scf_cycles = 200
      mem_static = 100
       mem_total = 1500
   scf_algorithm = rca_diis
       scf_guess = sad
$end


$opt
CONSTRAINT
tors 4 5 7 9 -80.0
ENDCONSTRAINT
$end

--------------------------------------------------------------
 Atom   8: ( -1.7106071112, -0.8303266663,  0.8956614254)
         ->( -1.7106070388, -0.8303266988,  0.8956613896)
 Atom  10: ( -3.1997581437, -0.1374688454,  0.2415877229)
         ->( -3.1997581267, -0.1374687510,  0.2415879175)
 Atom  11: ( -2.9185116274,  0.7193681254, -0.8062257772)
         ->( -2.9185116964,  0.7193680162, -0.8062257643)
 Atom   9: ( -1.5457501053,  0.8444094371, -1.1097767694)
         ->( -1.5457501907,  0.8444094747, -1.1097767821)
 Atom   7: ( -0.7009924525,  0.0670297695, -0.2833674590)
         ->( -0.7009924647,  0.0670299051, -0.2833674416)
 Atom  16: ( -1.1575905640,  1.4745970023, -1.9028724165)
         ->( -1.1575906916,  1.4745971346, -1.9028723725)
 Atom  14: (  3.6961613334, -1.2515098276, -1.3492263123)
         ->(  3.6961611709, -1.2515101252, -1.3492262387)
 Atom  15: ( -4.1568324063, -0.4036878213,  0.6682092391)
         ->( -4.1568323779, -0.4036880875,  0.6682091793)
 ----------------------------------------------------------------
             Standard Nuclear Orientation (Angstroms)
    I     Atom           X                Y                Z
 ----------------------------------------------------------------
    1      S       1.7106070388     0.8303266988     0.8956613896
    2      C       3.1997581267     0.1374687510     0.2415879175
    3      C       2.9185116964    -0.7193680162    -0.8062257643
    4      C       1.5457501907    -0.8444094747    -1.1097767821
    5      C       0.7009924647    -0.0670299051    -0.2833674416
    6      H       1.1575906916    -1.4745971346    -1.9028723725
    7      C      -0.7009924647     0.0670299051    -0.2833674416
    8      S      -1.7106070388    -0.8303266988     0.8956613896
    9      C      -1.5457501907     0.8444094747    -1.1097767821
   10      C      -3.1997581267    -0.1374687510     0.2415879175
   11      C      -2.9185116964     0.7193680162    -0.8062257643
   12      H      -3.6961611709     1.2515101252    -1.3492262387
   13      H       4.1568323779     0.4036880875     0.6682091793
   14      H       3.6961611709    -1.2515101252    -1.3492262387
   15      H      -4.1568323779    -0.4036880875     0.6682091793
   16      H      -1.1575906916     1.4745971346    -1.9028723725
 ----------------------------------------------------------------
 Molecular Point Group                 C2    NOp =  2
 Largest Abelian Subgroup              C2    NOp =  2
 Nuclear Repulsion Energy =   623.6052516450 hartrees
 There are       44 alpha and       43 beta electrons
 Requested basis set is 6-31++G(d,p)
 There are 76 shells and 234 basis functions

 Total QAlloc Memory Limit   1500 MB
 Mega-Array Size        98 MB
 MEM_STATIC part       100 MB
 A cutoff of  1.0D-12 yielded   2519 shell pairs
 There are     24841 function pairs
 
 -------------------------------------------------------
 OpenMP Integral Computing Module                       
 Release: version 1.0, May 2013, Q-Chem Inc. Pittsburgh 
 -------------------------------------------------------
 Integral Job Info:
 Integral job number is                      11
 Integral operator is                         1
 short-range coefficients                     0
 long-range coefficients              100000000
 Omega coefficients                           0
 if combine SR and LR in K                    0
 Integral screening is                        0
 Integral computing path is                   2
 max size of driver memory is            800000
 size of driver memory is                593474
 size of scratch memory is             15166112
 max col of scratch BK array               1296
 max len of scratch array in speh3          155
 max len of scratch index in speh4           18
 max int batch size is                      520
 min int batch size is                       52
 fixed nKL is                                52
 max L of basis functions is                  2
 order of int derivative is                   0
 number of shells is                         76
 number of basis is                         234
 number of cartesian basis is               234
 number of contracted shell pairs          2519
 number of primitive shell pairs           8190
 maxK2 (contraction) of shell pair           36
 max number of K2 of shell pair               1
 max number of CS2 of shell pair            260
 max number of PS2 of shell pair           1524
 mem total for path MDJ                   51992
 -------------------------------------------------------
 Smallest overlap matrix eigenvalue = 9.41E-07
 Linear dependence detected in AO basis
 Number of orthogonalized atomic orbitals = 233
 Maximum deviation from orthogonality = 3.544E-11

 Scale SEOQF with 1.000000e-01/1.000000e-01/1.000000e-01

 Standard Electronic Orientation quadrupole field applied
 Nucleus-field energy     =     0.0000000115 hartrees
 Guess from superposition of atomic densities
 Warning:  Energy on first SCF cycle will be non-variational
 An unrestricted hybrid HF-DFT SCF calculation will be
 performed using Relaxed Constraint Minimization + Pulay DIIS
 Exchange:     0.2000 Hartree-Fock + 0.0800 Slater + 0.7200 B88
 Correlation:  0.1900 VWN1RPA + 0.8100 LYP
 Using SG-1 standard quadrature grid
 SCF converges when DIIS error is below 1.0E-08
 Inaccurate integrated density:
   Number of electrons =    87
   Numerical integral  =    85.999694108948
   Relative error      =    -1.1497768863 %
 Inaccurate integrated density:
   Number of electrons =    87
   Numerical integral  =    85.999694108949
   Relative error      =    -1.1497768863 %
 ---------------------------------------
  Cycle       Energy         DIIS Error
 ---------------------------------------
    1   -1106.9717758873      4.28E-02
 Inaccurate integrated density:
   Number of electrons =    87
   Numerical integral  =    87.010237552774
   Relative error      =     0.0117673020 %
 Inaccurate integrated density:
   Number of electrons =    87
   Numerical integral  =    87.010237552739
   Relative error      =     0.0117673020 %
    2   -1175.6893073746      1.40E-01
 Inaccurate integrated density:
   Number of electrons =    87
   Numerical integral  =    87.031469053931
   Relative error      =     0.0361713264 %
 Inaccurate integrated density:
   Number of electrons =    87
   Numerical integral  =    87.011652338197
   Relative error      =     0.0133934922 %
Recomputing EXC -1174.595980 -1176.004251 -1175.689307 
 Inaccurate integrated density:
   Number of electrons =    87
   Numerical integral  =    87.010331201229
   Relative error      =     0.0118749439 %
Recomputing EXC -1175.616800 -1175.710161 -1175.689307 
 Inaccurate integrated density:
   Number of electrons =    87
   Numerical integral  =    87.010243748774
   Relative error      =     0.0117744239 %
Recomputing EXC -1175.684510 -1175.690687 -1175.689307 
    3   -1175.6845095413      1.40E-01
 Inaccurate integrated density:
   Number of electrons =    87
   Numerical integral  =    87.031461031121
   Relative error      =     0.0361621047 %
 Inaccurate integrated density:
   Number of electrons =    87
   Numerical integral  =    87.011700743889
   Relative error      =     0.0134491309 %
Recomputing EXC -1174.604181 -1176.008702 -1175.684510 
 Inaccurate integrated density:
   Number of electrons =    87
   Numerical integral  =    87.010342905294
   Relative error      =     0.0118883969 %
Recomputing EXC -1175.610719 -1175.706582 -1175.684510 
 Inaccurate integrated density:
   Number of electrons =    87
   Numerical integral  =    87.010250488135
   Relative error      =     0.0117821703 %
Recomputing EXC -1175.679418 -1175.686010 -1175.684510 
    4   -1175.6794182450      1.40E-01
 Inaccurate integrated density:
   Number of electrons =    87
   Numerical integral  =    87.031452698814
   Relative error      =     0.0361525274 %
 Inaccurate integrated density:
   Number of electrons =    87
   Numerical integral  =    87.011771278823
   Relative error      =     0.0135302055 %
Recomputing EXC -1174.618585 -1176.017516 -1175.679418 
 Inaccurate integrated density:
   Number of electrons =    87
   Numerical integral  =    87.010358227120
   Relative error      =     0.0119060082 %
Recomputing EXC -1175.603822 -1175.703386 -1175.679418 
 Inaccurate integrated density:
   Number of electrons =    87
   Numerical integral  =    87.010258103627
   Relative error      =     0.0117909237 %
Recomputing EXC -1175.673917 -1175.681113 -1175.679418 
    5   -1175.6739169054      1.40E-01
 Inaccurate integrated density:
   Number of electrons =    87
   Numerical integral  =    87.031443629929
   Relative error      =     0.0361421034 %
 Inaccurate integrated density:
   Number of electrons =    87
   Numerical integral  =    87.011876278915
   Relative error      =     0.0136508953 %
Recomputing EXC -1174.642725 -1176.033127 -1175.673917 
 Inaccurate integrated density:
   Number of electrons =    87
   Numerical integral  =    87.010379556451
   Relative error      =     0.0119305247 %
Recomputing EXC -1175.595821 -1175.700904 -1175.673917 
 Inaccurate integrated density:
   Number of electrons =    87
   Numerical integral  =    87.010267188854
   Relative error      =     0.0118013665 %
Recomputing EXC -1175.667825 -1175.675936 -1175.673917 
    6   -1175.6678250613      1.40E-01
 Inaccurate integrated density:
   Number of electrons =    87
   Numerical integral  =    87.031433054990
   Relative error      =     0.0361299483 %
 Inaccurate integrated density:
   Number of electrons =    87
   Numerical integral  =    87.012042947303
   Relative error      =     0.0138424682 %
Recomputing EXC -1174.684547 -1176.060954 -1175.667825 
 Inaccurate integrated density:
   Number of electrons =    87
   Numerical integral  =    87.010412396832
   Relative error      =     0.0119682722 %
Recomputing EXC -1175.586279 -1175.700024 -1175.667825 
 Inaccurate integrated density:
   Number of electrons =    87
   Numerical integral  =    87.010279006522
   Relative error      =     0.0118149500 %
Recomputing EXC -1175.660829 -1175.670446 -1175.667825 
    7   -1175.6608291812      1.39E-01
 Inaccurate integrated density:
   Number of electrons =    87
   Numerical integral  =    87.031419303347
   Relative error      =     0.0361141418 %
 Inaccurate integrated density:
   Number of electrons =    87
   Numerical integral  =    87.012347661659
   Relative error      =     0.0141927146 %
Recomputing EXC -1174.766781 -1176.116234 -1175.660829 
 Inaccurate integrated density:
   Number of electrons =    87
   Numerical integral  =    87.010473390065
   Relative error      =     0.0120383794 %
Recomputing EXC -1175.574682 -1175.703751 -1175.660829 
 Inaccurate integrated density:
   Number of electrons =    87
   Numerical integral  =    87.010297144623
   Relative error      =     0.0118357984 %
Recomputing EXC -1175.652288 -1175.664836 -1175.660829 
    8   -1175.6522875254      1.39E-01
 Inaccurate integrated density:
   Number of electrons =    87
   Numerical integral  =    87.031397530755
   Relative error      =     0.0360891158 %
 Inaccurate integrated density:
   Number of electrons =    87
   Numerical integral  =    87.013150232873
   Relative error      =     0.0151152102 %
Recomputing EXC -1174.998728 -1176.269138 -1175.652288 
 Inaccurate integrated density:
   Number of electrons =    87
   Numerical integral  =    87.010653464548
   Relative error      =     0.0122453615 %
Recomputing EXC -1175.564219 -1175.729997 -1175.652288 
 Inaccurate integrated density:
   Number of electrons =    87
   Numerical integral  =    87.010341052921
   Relative error      =     0.0118862677 %
Recomputing EXC -1175.640667 -1175.661875 -1175.652288 
    9   -1175.6406670413      1.39E-01
 Inaccurate integrated density:
   Number of electrons =    87
   Numerical integral  =    87.031341364335
   Relative error      =     0.0360245567 %
 Inaccurate integrated density:
   Number of electrons =    87
   Numerical integral  =    87.031341364349
   Relative error      =     0.0360245567 %
   10   -1185.9581196818      1.96E-01
 Inaccurate integrated density:
   Number of electrons =    87
   Numerical integral  =    87.017532072792
   Relative error      =     0.0201518078 %
 Inaccurate integrated density:
   Number of electrons =    87
   Numerical integral  =    87.029595572353
   Relative error      =     0.0340178993 %
Recomputing EXC -1184.322842 -1190.653873 -1185.958120 
 Inaccurate integrated density:
   Number of electrons =    87
   Numerical integral  =    87.031004259105
   Relative error      =     0.0356370794 %
Recomputing EXC -1185.897002 -1186.824962 -1185.958120 
 Inaccurate integrated density:
   Number of electrons =    87
   Numerical integral  =    87.031271439397
   Relative error      =     0.0359441832 %
Recomputing EXC -1185.955459 -1186.135696 -1185.958120 
   11   -1185.9554591663      1.93E-01
 Inaccurate integrated density:
   Number of electrons =    87
   Numerical integral  =    87.017548735432
   Relative error      =     0.0201709603 %
 Inaccurate integrated density:
   Number of electrons =    87
   Numerical integral  =    87.029577250492
   Relative error      =     0.0339968396 %
Recomputing EXC -1184.018282 -1190.458614 -1185.955459 
 Inaccurate integrated density:
   Number of electrons =    87
   Numerical integral  =    87.030959238151
   Relative error      =     0.0355853312 %
Recomputing EXC -1185.777325 -1186.751805 -1185.955459 
 Inaccurate integrated density:
   Number of electrons =    87
   Numerical integral  =    87.031212149285
   Relative error      =     0.0358760337 %
Recomputing EXC -1185.880255 -1186.105639 -1185.955459 
   12   -1185.8802545230      1.91E-01
 Inaccurate integrated density:
   Number of electrons =    87
   Numerical integral  =    87.018088710744
   Relative error      =     0.0207916215 %
 Inaccurate integrated density:
   Number of electrons =    87
   Numerical integral  =    87.030211838962
   Relative error      =     0.0347262517 %
Recomputing EXC -1181.521837 -1188.629449 -1185.880255 
 Inaccurate integrated density:
   Number of electrons =    87
   Numerical integral  =    87.031100036964
   Relative error      =     0.0357471689 %
Recomputing EXC -1185.425337 -1186.181504 -1185.880255 
 Inaccurate integrated density:
   Number of electrons =    87
   Numerical integral  =    87.031199884620
   Relative error      =     0.0358619363 %
Recomputing EXC -1185.775149 -1185.913202 -1185.880255 
   13   -1185.7751485872      1.90E-01
 Inaccurate integrated density:
   Number of electrons =    87
   Numerical integral  =    87.018439945763
   Relative error      =     0.0211953400 %
 Inaccurate integrated density:
   Number of electrons =    87
   Numerical integral  =    87.030444631871
   Relative error      =     0.0349938297 %
Recomputing EXC -1181.014781 -1187.894371 -1185.775149 
 Inaccurate integrated density:
   Number of electrons =    87
   Numerical integral  =    87.031130255541
   Relative error      =     0.0357819029 %
Recomputing EXC -1185.343284 -1185.966701 -1185.775149 
 Inaccurate integrated density:
   Number of electrons =    87
   Numerical integral  =    87.031193759767
   Relative error      =     0.0358548963 %
Recomputing EXC -1185.679466 -1185.792010 -1185.775149 
   14   -1185.6794659328      1.90E-01
 Inaccurate integrated density:
   Number of electrons =    87
   Numerical integral  =    87.018768892181
   Relative error      =     0.0215734393 %
 Inaccurate integrated density:
   Number of electrons =    87
   Numerical integral  =    87.030469497015
   Relative error      =     0.0350224104 %
Recomputing EXC -1181.311344 -1187.746315 -1185.679466 
 Inaccurate integrated density:
   Number of electrons =    87
   Numerical integral  =    87.031124041470
   Relative error      =     0.0357747603 %
Recomputing EXC -1185.273514 -1185.874051 -1185.679466 
 Inaccurate integrated density:
   Number of electrons =    87
   Numerical integral  =    87.031187338645
   Relative error      =     0.0358475157 %
Recomputing EXC -1185.584557 -1185.697396 -1185.679466 
   15   -1185.5845570288      1.89E-01
 Inaccurate integrated density:
   Number of electrons =    87
   Numerical integral  =    87.019124993316
   Relative error      =     0.0219827509 %
 Inaccurate integrated density:
   Number of electrons =    87
   Numerical integral  =    87.029913137384
   Relative error      =     0.0343829165 %
Recomputing EXC -1184.819066 -1189.267061 -1185.584557 
 Inaccurate integrated density:
   Number of electrons =    87
   Numerical integral  =    87.030897801656
   Relative error      =     0.0355147145 %
   16   -1185.7108566357      1.70E-01
 Inaccurate integrated density:
   Number of electrons =    87
   Numerical integral  =    87.021146910218
   Relative error      =     0.0243067934 %
 Inaccurate integrated density:
   Number of electrons =    87
   Numerical integral  =    87.021146910192
   Relative error      =     0.0243067933 %
   17   -1501.5144354061      7.81E-01
 Inaccurate integrated density:
   Number of electrons =    87
   Numerical integral  =    87.018784174752
   Relative error      =     0.0215910055 %
Recomputing EXC -1482.168174 -1514.093136 -1501.514435 
 Inaccurate integrated density:
   Number of electrons =    87
   Numerical integral  =    87.020888384407
   Relative error      =     0.0240096372 %
Recomputing EXC -1499.535251 -1502.878797 -1501.514435 
 Inaccurate integrated density:
   Number of electrons =    87
   Numerical integral  =    87.021118277200
   Relative error      =     0.0242738818 %
Recomputing EXC -1501.296896 -1501.665389 -1501.514435 
   18   -1501.2968956775      7.79E-01
 Inaccurate integrated density:
   Number of electrons =    87
   Numerical integral  =    87.018769644873
   Relative error      =     0.0215743045 %
Recomputing EXC -1481.843586 -1513.784948 -1501.296896 
 Inaccurate integrated density:
   Number of electrons =    87
   Numerical integral  =    87.020862837509
   Relative error      =     0.0239802730 %
Recomputing EXC -1499.313813 -1502.643474 -1501.296896 
 Inaccurate integrated density:
   Number of electrons =    87
   Numerical integral  =    87.021090174816
   Relative error      =     0.0242415802 %
Recomputing EXC -1501.078265 -1501.444894 -1501.296896 
   19   -1501.0782646465      7.77E-01
 Inaccurate integrated density:
   Number of electrons =    87
   Numerical integral  =    87.019196149755
   Relative error      =     0.0220645399 %
Recomputing EXC -1472.769490 -1511.161423 -1501.078265 
 Inaccurate integrated density:
   Number of electrons =    87
   Numerical integral  =    87.020946125231
   Relative error      =     0.0240760060 %
Recomputing EXC -1498.899448 -1501.846500 -1501.078265 
 Inaccurate integrated density:
   Number of electrons =    87
   Numerical integral  =    87.021079255641
   Relative error      =     0.0242290295 %
Recomputing EXC -1500.909577 -1501.136508 -1501.078265 
   20   -1500.9095768996      7.77E-01
 Inaccurate integrated density:
   Number of electrons =    87
   Numerical integral  =    87.019328485985
   Relative error      =     0.0222166506 %
Recomputing EXC -1467.466178 -1510.248364 -1500.909577 
 Inaccurate integrated density:
   Number of electrons =    87
   Numerical integral  =    87.020967134102
   Relative error      =     0.0241001541 %
Recomputing EXC -1498.685193 -1501.511806 -1500.909577 
 Inaccurate integrated density:
   Number of electrons =    87
   Numerical integral  =    87.021072146359
   Relative error      =     0.0242208579 %
Recomputing EXC -1500.764303 -1500.947779 -1500.909577 
   21   -1500.7643030193      7.77E-01
 Inaccurate integrated density:
   Number of electrons =    87
   Numerical integral  =    87.018866537422
   Relative error      =     0.0216856752 %
Recomputing EXC -1465.855373 -1512.411750 -1500.764303 
 Inaccurate integrated density:
   Number of electrons =    87
   Numerical integral  =    87.020915599757
   Relative error      =     0.0240409193 %
Recomputing EXC -1498.043024 -1501.606576 -1500.764303 
 Inaccurate integrated density:
   Number of electrons =    87
   Numerical integral  =    87.021061277654
   Relative error      =     0.0242083651 %
Recomputing EXC -1500.570013 -1500.822846 -1500.764303 
   22   -1500.5700126357      7.77E-01
 Inaccurate integrated density:
   Number of electrons =    87
   Numerical integral  =    87.017799313933
   Relative error      =     0.0204589815 %
Recomputing EXC -1465.684338 -1517.158773 -1500.570013 
 Inaccurate integrated density:
   Number of electrons =    87
   Numerical integral  =    87.020785908881
   Relative error      =     0.0238918493 %
Recomputing EXC -1496.757393 -1502.052520 -1500.570013 
 Inaccurate integrated density:
   Number of electrons =    87
   Numerical integral  =    87.021039204550
   Relative error      =     0.0241829937 %
Recomputing EXC -1500.253984 -1500.689236 -1500.570013 
   23   -1500.2539840939      7.77E-01
 Inaccurate integrated density:
   Number of electrons =    87
   Numerical integral  =    87.020889315047
   Relative error      =     0.0240107070 %
Recomputing EXC -1445.997194 -1501.088721 -1500.253984 
 Inaccurate integrated density:
   Number of electrons =    87
   Numerical integral  =    87.021038455103
   Relative error      =     0.0241821323 %
Recomputing EXC -1499.975774 -1500.258162 -1500.253984 
 Inaccurate integrated density:
   Number of electrons =    87
   Numerical integral  =    87.021039200877
   Relative error      =     0.0241829895 %
Recomputing EXC -1500.246812 -1500.254005 -1500.253984 
   24   -1500.2468118665      7.77E-01
 Inaccurate integrated density:
   Number of electrons =    87
   Numerical integral  =    87.020765688474
   Relative error      =     0.0238686074 %
Recomputing EXC -1450.900068 -1501.773981 -1500.246812 
 Inaccurate integrated density:
   Number of electrons =    87
   Numerical integral  =    87.021036515195
   Relative error      =     0.0241799025 %
Recomputing EXC -1499.753750 -1500.261827 -1500.246812 
 Inaccurate integrated density:
   Number of electrons =    87
   Numerical integral  =    87.021039174827
   Relative error      =     0.0241829596 %
Recomputing EXC -1500.236249 -1500.246957 -1500.246812 
   25   -1500.2362494075      7.77E-01
 Inaccurate integrated density:
   Number of electrons =    87
   Numerical integral  =    87.020992054381
   Relative error      =     0.0241287981 %
Recomputing EXC -1453.279885 -1500.503738 -1500.236249 
 Inaccurate integrated density:
   Number of electrons =    87
   Numerical integral  =    87.021039086152
   Relative error      =     0.0241828576 %
Recomputing EXC -1500.142017 -1500.236753 -1500.236249 
 Inaccurate integrated density:
   Number of electrons =    87
   Numerical integral  =    87.021039174661
   Relative error      =     0.0241829594 %
Recomputing EXC -1500.230252 -1500.236250 -1500.236249 
   26   -1500.2302523294      7.77E-01
 Inaccurate integrated density:
   Number of electrons =    87
   Numerical integral  =    87.020992659084
   Relative error      =     0.0241294932 %
Recomputing EXC -1453.167494 -1500.497173 -1500.230252 
 Inaccurate integrated density:
   Number of electrons =    87
   Numerical integral  =    87.021039087510
   Relative error      =     0.0241828592 %
Recomputing EXC -1500.136204 -1500.230752 -1500.230252 
 Inaccurate integrated density:
   Number of electrons =    87
   Numerical integral  =    87.021039174537
   Relative error      =     0.0241829592 %
Recomputing EXC -1500.224256 -1500.230253 -1500.230252 
   27   -1500.2242562705      7.77E-01
 Inaccurate integrated density:
   Number of electrons =    87
   Numerical integral  =    87.020996395507
   Relative error      =     0.0241337879 %
Recomputing EXC -1453.104598 -1500.472802 -1500.224256 
 Inaccurate integrated density:
   Number of electrons =    87
   Numerical integral  =    87.021039099931
   Relative error      =     0.0241828735 %
Recomputing EXC -1500.136231 -1500.224690 -1500.224256 
 Inaccurate integrated density:
   Number of electrons =    87
   Numerical integral  =    87.021039174407
   Relative error      =     0.0241829591 %
Recomputing EXC -1500.218281 -1500.224257 -1500.224256 
   28   -1500.2182814311      7.77E-01
 Inaccurate integrated density:
   Number of electrons =    87
   Numerical integral  =    87.021000301133
   Relative error      =     0.0241382772 %
Recomputing EXC -1453.134308 -1500.447185 -1500.218281 
 Inaccurate integrated density:
   Number of electrons =    87
   Numerical integral  =    87.021039111895
   Relative error      =     0.0241828872 %
Recomputing EXC -1500.136705 -1500.218650 -1500.218281 
 Inaccurate integrated density:
   Number of electrons =    87
   Numerical integral  =    87.021039174300
   Relative error      =     0.0241829590 %
Recomputing EXC -1500.212327 -1500.218282 -1500.218281 
   29   -1500.2123273088      7.77E-01
 Inaccurate integrated density:
   Number of electrons =    87
   Numerical integral  =    87.021002284706
   Relative error      =     0.0241405571 %
Recomputing EXC -1453.327158 -1500.432621 -1500.212327 
 Inaccurate integrated density:
   Number of electrons =    87
   Numerical integral  =    87.021039116929
   Relative error      =     0.0241828930 %
Recomputing EXC -1500.133582 -1500.212670 -1500.212327 
 Inaccurate integrated density:
   Number of electrons =    87
   Numerical integral  =    87.021039174212
   Relative error      =     0.0241829589 %
Recomputing EXC -1500.206381 -1500.212328 -1500.212327 
   30   -1500.2063813373      7.77E-01
 Inaccurate integrated density:
   Number of electrons =    87
   Numerical integral  =    87.020998902657
   Relative error      =     0.0241366697 %
Recomputing EXC -1453.738038 -1500.450380 -1500.206381 
 Inaccurate integrated density:
   Number of electrons =    87
   Numerical integral  =    87.021039104303
   Relative error      =     0.0241828785 %
Recomputing EXC -1500.119861 -1500.206805 -1500.206381 
 Inaccurate integrated density:
   Number of electrons =    87
   Numerical integral  =    87.021039174095
   Relative error      =     0.0241829587 %
Recomputing EXC -1500.200410 -1500.206382 -1500.206381 
   31   -1500.2004096760      7.77E-01
 Inaccurate integrated density:
   Number of electrons =    87
   Numerical integral  =    87.020979204087
   Relative error      =     0.0241140277 %
Recomputing EXC -1454.107176 -1500.569068 -1500.200410 
 Inaccurate integrated density:
   Number of electrons =    87
   Numerical integral  =    87.021039016182
   Relative error      =     0.0241827772 %
Recomputing EXC -1500.073174 -1500.201380 -1500.200410 
 Inaccurate integrated density:
   Number of electrons =    87
   Numerical integral  =    87.021039173719
   Relative error      =     0.0241829583 %
Recomputing EXC -1500.194264 -1500.200412 -1500.200410 
   32   -1500.1942635891      7.77E-01
 Inaccurate integrated density:
   Number of electrons =    87
   Numerical integral  =    87.020859327756
   Relative error      =     0.0239762388 %
Recomputing EXC -1451.729784 -1501.314172 -1500.194264 
 Inaccurate integrated density:
   Number of electrons =    87
   Numerical integral  =    87.021037838411
   Relative error      =     0.0241814235 %
Recomputing EXC -1499.827415 -1500.202585 -1500.194264 
 Inaccurate integrated density:
   Number of electrons =    87
   Numerical integral  =    87.021039163953
   Relative error      =     0.0241829471 %
Recomputing EXC -1500.185786 -1500.194324 -1500.194264 
   33   -1500.1857858545      7.78E-01
   34   -7732.2285800170      1.73E+01
Recomputing EXC -7361.846002 -7857.348386 -7732.228580 
Recomputing EXC -7705.303580 -7741.485943 -7732.228580 
Recomputing EXC -7730.222946 -7732.919065 -7732.228580 
   35   -7730.2229457525      1.73E+01
Recomputing EXC -7360.175664 -7855.098599 -7730.222946 
Recomputing EXC -7704.073288 -7739.455091 -7730.222946 
Recomputing EXC -7728.978216 -7730.922854 -7730.222946 
   36   -7728.9782156726      1.73E+01
Recomputing EXC -7365.893533 -7854.960951 -7728.978216 
Recomputing EXC -7702.913336 -7738.468101 -7728.978216 
Recomputing EXC -7727.697888 -7729.712006 -7728.978216 
   37   -7727.6978879515      1.73E+01
Recomputing EXC -7364.814015 -7853.513038 -7727.697888 
Recomputing EXC -7701.658621 -7737.170279 -7727.697888 
Recomputing EXC -7726.418639 -7728.429922 -7727.697888 
   38   -7726.4186393448      1.73E+01
Recomputing EXC -7363.009038 -7851.938641 -7726.418639 
Recomputing EXC -7700.396864 -7735.844859 -7726.418639 
Recomputing EXC -7725.144237 -7727.145146 -7726.418639 
   39   -7725.1442371254      1.72E+01
Recomputing EXC -7361.203090 -7850.381266 -7725.144237 
Recomputing EXC -7699.138334 -7734.525815 -7725.144237 
Recomputing EXC -7723.874482 -7725.865393 -7725.144237 
   40   -7723.8744819956      1.72E+01
Recomputing EXC -7359.629540 -7848.883520 -7723.874482 
Recomputing EXC -7697.885060 -7733.222314 -7723.874482 
Recomputing EXC -7722.607930 -7724.591678 -7723.874482 
   41   -7722.6079297573      1.72E+01
Recomputing EXC -7358.255377 -7847.435544 -7722.607930 
Recomputing EXC -7696.635520 -7731.931248 -7722.607930 
Recomputing EXC -7721.343350 -7723.322342 -7722.607930 
   42   -7721.3433497627      1.72E+01
Recomputing EXC -7357.002578 -7846.021496 -7721.343350 
Recomputing EXC -7695.387725 -7730.648201 -7721.343350 
Recomputing EXC -7720.079924 -7722.055736 -7721.343350 
   43   -7720.0799238139      1.72E+01
Recomputing EXC -7355.812781 -7844.631155 -7720.079924 
Recomputing EXC -7694.140083 -7729.370170 -7720.079924 
Recomputing EXC -7718.817111 -7720.790753 -7720.079924 
   44   -7718.8171109408      1.72E+01
Recomputing EXC -7354.639928 -7843.257751 -7718.817111 
Recomputing EXC -7692.891273 -7728.095041 -7718.817111 
Recomputing EXC -7717.554565 -7719.526639 -7718.817111 
   45   -7717.5545645741      1.72E+01
Recomputing EXC -7353.438983 -7841.895647 -7717.554565 
Recomputing EXC -7691.640071 -7726.821031 -7717.554565 
Recomputing EXC -7716.292113 -7718.262852 -7717.554565 
   46   -7716.2921125666      1.71E+01
Recomputing EXC -7352.159947 -7840.539337 -7716.292113 
Recomputing EXC -7690.385251 -7725.546435 -7716.292113 
Recomputing EXC -7715.029767 -7716.999010 -7716.292113 
   47   -7715.0297665205      1.71E+01
Recomputing EXC -7350.747656 -7839.183662 -7715.029767 
Recomputing EXC -7689.125562 -7724.269670 -7715.029767 
Recomputing EXC -7713.767727 -7715.734902 -7715.029767 
   48   -7713.7677270839      1.71E+01
Recomputing EXC -7349.147461 -7837.825122 -7713.767727 
Recomputing EXC -7687.859756 -7722.989532 -7713.767727 
Recomputing EXC -7712.506354 -7714.470528 -7713.767727 
   49   -7712.5063538490      1.71E+01
Recomputing EXC -7347.314471 -7836.463476 -7712.506354 
Recomputing EXC -7686.586659 -7721.705541 -7712.506354 
Recomputing EXC -7711.246087 -7713.206119 -7712.506354 
   50   -7711.2460873043      1.71E+01 Done RCA. Switching to DIIS
   51    -907.9551889636      2.43E+00
   52    -107.7787649654      3.72E+00
 Inaccurate integrated density:
   Number of electrons =    87
   Numerical integral  =    87.022977118154
   Relative error      =     0.0264104806 %
   53   -8524.2902880326      2.26E+01
 Inaccurate integrated density:
   Number of electrons =    87
   Numerical integral  =    86.989489525679
   Relative error      =    -0.0120810050 %
   54    -923.7522656868      8.78E-02
   55    -706.4605885284      1.19E-01
 Inaccurate integrated density:
   Number of electrons =    87
   Numerical integral  =    86.989387814514
   Relative error      =    -0.0121979144 %
   56   -1081.5818769277      4.45E-02
   57   -1100.4578998732      2.13E-02
   58   -1100.4703561089      2.34E-02
   59   -1103.9299366548      1.09E-02
   60   -1104.4008336010      7.12E-03
   61   -1102.8465000394      5.73E-03
   62   -1104.8563251802      1.11E-02
   63   -1104.0371325617      7.20E-03
   64   -1104.0494626472      6.62E-03
   65   -1104.3733839918      4.40E-03
   66   -1104.4170626928      5.10E-03
   67   -1104.5273149820      3.99E-03
   68   -1104.8254896471      2.88E-03
   69   -1104.7897772813      1.64E-03
   70   -1104.8099968937      9.58E-04
   71   -1104.8193016066      1.57E-04
   72   -1104.8195818878      5.43E-05
   73   -1104.8196165293      2.52E-05
   74   -1104.8196339698      1.41E-05
   75   -1104.8196462279      6.02E-06
   76   -1104.8196504878      3.14E-06
   77   -1104.8196530512      2.69E-06
   78   -1104.8196558678      2.05E-06
   79   -1104.8196580172      1.42E-06
   80   -1104.8196581694      4.72E-07
   81   -1104.8196581848      7.54E-08
   82   -1104.8196581872      4.38E-08
   83   -1104.8196581882      1.32E-08
   84   -1104.8196581881      3.65E-09 Convergence criterion met
 ---------------------------------------
 <S^2> = 0.7569
 SCF time:  CPU 78.49 s  wall 71.60 s
 SCF   energy in the final basis set = -1104.8196581881
 Total energy in the final basis set = -1104.8196581881
 
 --------------------------------------------------------------
             Orbital Energies (a.u.) and Symmetries
 --------------------------------------------------------------
 
 Alpha MOs, Unrestricted
 -- Occupied --                  
-88.750 -88.750 -10.061 -10.060 -10.060 -10.060 -10.049 -10.049
  1 B     1 A     2 A     3 A     2 B     3 B     4 A     4 B                  
-10.041 -10.041  -7.809  -7.809  -5.773  -5.773  -5.769  -5.769
  5 B     5 A     6 B     6 A     7 B     7 A     8 B     8 A                  
 -5.766  -5.766  -0.724  -0.703  -0.607  -0.577  -0.576  -0.538
  9 B     9 A    10 A    10 B    11 A    12 A    11 B    12 B                  
 -0.448  -0.406  -0.405  -0.373  -0.363  -0.317  -0.260  -0.257
 13 A    14 A    13 B    14 B    15 A    15 B    16 A    16 B                  
 -0.252  -0.245  -0.236  -0.211  -0.210  -0.189  -0.188  -0.109
 17 A    17 B    18 A    19 A    18 B    20 A    19 B    21 A                  
 -0.102  -0.090  -0.075   0.067
 20 B    21 B    22 A    22 B                                                  
 -- Virtual --                   
  0.092   0.095   0.108   0.109   0.110   0.124   0.133   0.148
 23 A    23 B    24 A    25 A    24 B    26 A    25 B    27 A                  
  0.151   0.156   0.160   0.175   0.176   0.180   0.182   0.189
 26 B    28 A    27 B    29 A    28 B    30 A    29 B    31 A                  
  0.193   0.196   0.210   0.214   0.217   0.220   0.222   0.227
 30 B    32 A    33 A    31 B    34 A    32 B    35 A    33 B                  
  0.230   0.235   0.237   0.242   0.245   0.246   0.256   0.270
 34 B    35 B    36 A    37 A    38 A    36 B    37 B    39 A                  
  0.272   0.278   0.278   0.285   0.288   0.297   0.299   0.308
 38 B    40 A    39 B    41 A    42 A    40 B    41 B    43 A                  
  0.308   0.324   0.332   0.340   0.342   0.344   0.349   0.370
 42 B    43 B    44 A    44 B    45 A    46 A    45 B    46 B                  
  0.372   0.391   0.394   0.399   0.406   0.423   0.441   0.448
 47 A    47 B    48 A    48 B    49 A    50 A    49 B    50 B                  
  0.459   0.468   0.483   0.489   0.508   0.540   0.558   0.610
 51 A    52 A    53 A    51 B    52 B    54 A    53 B    55 A                  
  0.617   0.635   0.668   0.675   0.701   0.718   0.721   0.737
 56 A    54 B    57 A    55 B    56 B    58 A    57 B    59 A                  
  0.759   0.790   0.795   0.815   0.820   0.826   0.840   0.840
 58 B    60 A    59 B    61 A    62 A    60 B    61 B    63 A                  
  0.871   0.871   0.897   0.906   0.920   0.921   0.932   0.958
 62 B    64 A    63 B    64 B    65 A    65 B    66 A    66 B                  
  0.962   0.986   0.996   1.042   1.050   1.091   1.094   1.103
 67 A    68 A    67 B    69 A    68 B    69 B    70 A    70 B                  
  1.106   1.114   1.116   1.124   1.127   1.137   1.164   1.169
 71 A    72 A    71 B    72 B    73 A    73 B    74 A    74 B                  
  1.191   1.203   1.229   1.243   1.249   1.254   1.273   1.313
 75 A    75 B    76 A    77 A    76 B    78 A    77 B    78 B                  
  1.331   1.364   1.379   1.425   1.474   1.502   1.506   1.512
 79 A    80 A    79 B    81 A    80 B    82 A    81 B    83 A                  
  1.519   1.543   1.614   1.635   1.647   1.677   1.731   1.840
 82 B    84 A    83 B    84 B    85 A    86 A    85 B    87 A                  
  1.843   1.969   1.970   1.992   2.038   2.047   2.066   2.073
 86 B    87 B    88 A    89 A    88 B    90 A    89 B    91 A                  
  2.100   2.106   2.164   2.169   2.204   2.225   2.265   2.299
 90 B    92 A    93 A    91 B    92 B    94 A    95 A    93 B                  
  2.325   2.333   2.347   2.400   2.415   2.487   2.513   2.517
 94 B    95 B    96 A    96 B    97 A    98 A    99 A    97 B                  
  2.573   2.591   2.619   2.622   2.634   2.665   2.668   2.679
 98 B   100 A   101 A    99 B   100 B   102 A   101 B   103 A                  
  2.732   2.739   2.768   2.794   2.845   2.852   2.925   2.972
102 B   104 A   103 B   105 A   104 B   106 A   105 B   107 A                  
  3.008   3.021   3.112   3.309   3.332   3.415   3.418   3.552
106 B   108 A   107 B   109 A   108 B   109 B   110 A   111 A                  
  3.576   3.865   3.884   4.124   4.129   4.450   4.450   4.462
110 B   112 A   111 B   113 A   112 B   113 B   114 A   115 A                  
  4.474   4.598   4.672   4.813   4.867
114 B   116 A   115 B   117 A   116 B                                          
 
 Beta MOs, Unrestricted
 -- Occupied --                  
-88.749 -88.749 -10.058 -10.058 -10.058 -10.058 -10.049 -10.049
  1 B     1 A     2 A     3 A     2 B     3 B     4 A     4 B                  
-10.040 -10.040  -7.808  -7.808  -5.772  -5.772  -5.769  -5.769
  5 A     5 B     6 B     6 A     7 B     7 A     8 B     8 A                  
 -5.764  -5.764  -0.720  -0.700  -0.601  -0.574  -0.573  -0.534
  9 B     9 A    10 A    10 B    11 A    12 A    11 B    12 B                  
 -0.442  -0.404  -0.402  -0.370  -0.361  -0.315  -0.258  -0.254
 13 A    14 A    13 B    14 B    15 A    15 B    16 A    16 B                  
 -0.250  -0.240  -0.233  -0.205  -0.204  -0.185  -0.184  -0.102
 17 A    17 B    18 A    18 B    19 A    20 A    19 B    21 A                  
 -0.095  -0.074  -0.062
 20 B    21 B    22 A                                                          
 -- Virtual --                   
  0.091   0.094   0.108   0.109   0.118   0.120   0.126   0.133
 23 A    22 B    24 A    23 B    24 B    25 A    26 A    25 B                  
  0.148   0.150   0.159   0.161   0.175   0.176   0.182   0.185
 27 A    26 B    28 A    27 B    29 A    28 B    30 A    29 B                  
  0.190   0.194   0.196   0.209   0.215   0.217   0.220   0.222
 31 A    30 B    32 A    33 A    31 B    34 A    32 B    35 A                  
  0.229   0.232   0.235   0.238   0.243   0.245   0.247   0.256
 33 B    34 B    35 B    36 A    37 A    38 A    36 B    37 B                  
  0.272   0.273   0.278   0.279   0.285   0.289   0.298   0.299
 39 A    38 B    40 A    39 B    41 A    42 A    40 B    41 B                  
  0.310   0.314   0.324   0.333   0.342   0.342   0.344   0.349
 42 B    43 A    43 B    44 A    44 B    45 A    46 A    45 B                  
  0.371   0.373   0.391   0.395   0.400   0.406   0.425   0.443
 46 B    47 A    47 B    48 A    48 B    49 A    50 A    49 B                  
  0.450   0.459   0.470   0.483   0.490   0.510   0.541   0.561
 50 B    51 A    52 A    53 A    51 B    52 B    54 A    53 B                  
  0.613   0.619   0.638   0.671   0.677   0.703   0.720   0.724
 55 A    56 A    54 B    57 A    55 B    56 B    58 A    57 B                  
  0.739   0.762   0.794   0.798   0.821   0.827   0.833   0.842
 59 A    58 B    60 A    59 B    61 A    62 A    60 B    63 A                  
  0.846   0.873   0.873   0.900   0.908   0.924   0.926   0.934
 61 B    64 A    62 B    63 B    64 B    65 A    65 B    66 A                  
  0.962   0.964   0.992   1.001   1.044   1.052   1.093   1.097
 66 B    67 A    68 A    67 B    69 A    68 B    69 B    70 A                  
  1.105   1.106   1.118   1.120   1.125   1.128   1.138   1.168
 70 B    71 A    72 A    71 B    72 B    73 A    73 B    74 A                  
  1.172   1.193   1.206   1.231   1.246   1.252   1.257   1.276
 74 B    75 A    75 B    76 A    77 A    76 B    78 A    77 B                  
  1.315   1.333   1.366   1.381   1.429   1.477   1.507   1.511
 78 B    79 A    80 A    79 B    81 A    80 B    82 A    81 B                  
  1.514   1.522   1.546   1.616   1.638   1.650   1.681   1.736
 83 A    82 B    84 A    83 B    84 B    85 A    86 A    85 B                  
  1.848   1.852   1.973   1.978   1.996   2.040   2.049   2.068
 87 A    86 B    88 A    87 B    89 A    88 B    90 A    89 B                  
  2.077   2.106   2.108   2.167   2.172   2.206   2.230   2.271
 91 A    90 B    92 A    93 A    91 B    92 B    94 A    95 A                  
  2.307   2.332   2.336   2.354   2.404   2.420   2.492   2.515
 93 B    94 B    95 B    96 A    96 B    97 A    98 A    99 A                  
  2.518   2.575   2.595   2.622   2.626   2.636   2.666   2.671
 97 B    98 B   100 A   101 A    99 B   100 B   102 A   101 B                  
  2.682   2.735   2.742   2.770   2.798   2.847   2.855   2.928
103 A   102 B   104 A   103 B   105 A   104 B   106 A   105 B                  
  2.975   3.010   3.023   3.114   3.310   3.333   3.415   3.418
107 A   106 B   108 A   107 B   109 A   108 B   109 B   110 A                  
  3.553   3.578   3.866   3.885   4.126   4.131   4.453   4.455
111 A   110 B   112 A   111 B   113 A   112 B   113 B   114 A                  
  4.465   4.476   4.603   4.678   4.815   4.870
115 A   114 B   116 A   115 B   117 A   116 B                                  
 --------------------------------------------------------------
 
          Ground-State Mulliken Net Atomic Charges

     Atom                 Charge (a.u.)    Spin (a.u.)
  --------------------------------------------------------
      1 S                    -0.160589       0.141344
      2 C                    -0.066538       0.171936
      3 C                    -0.334018      -0.039959
      4 C                     0.181203       0.139967
      5 C                    -0.386415       0.047842
      6 H                     0.083795       0.006112
      7 C                    -0.386415       0.047842
      8 S                    -0.160589       0.141344
      9 C                     0.181203       0.139967
     10 C                    -0.066538       0.171936
     11 C                    -0.334018      -0.039959
     12 H                     0.061006       0.017400
     13 H                     0.121555       0.015358
     14 H                     0.061006       0.017400
     15 H                     0.121555       0.015358
     16 H                     0.083795       0.006112
  --------------------------------------------------------
  Sum of atomic charges =    -1.000000
  Sum of spin   charges =     1.000000

 -----------------------------------------------------------------
                    Cartesian Multipole Moments
 -----------------------------------------------------------------
    Charge (ESU x 10^10)
                -4.8032
    Dipole Moment (Debye)
         X      -0.0000      Y       0.0000      Z      -0.6929
       Tot       0.6929
    Quadrupole Moments (Debye-Ang)
        XX    -101.1652     XY      -1.1549     YY     -87.4514
        XZ      -0.0000     YZ      -0.0000     ZZ     -85.0103
    Octopole Moments (Debye-Ang^2)
       XXX      -0.0000    XXY      -0.0000    XYY      -0.0000
       YYY       0.0000    XXZ       7.2232    XYZ       4.4640
       YYZ      -0.8613    XZZ      -0.0000    YZZ       0.0000
       ZZZ      -1.4951
    Hexadecapole Moments (Debye-Ang^3)
      XXXX   -2549.8278   XXXY      -0.6389   XXYY    -518.4013
      XYYY      16.5731   YYYY    -431.1177   XXXZ       0.0000
      XXYZ      -0.0000   XYYZ       0.0000   YYYZ      -0.0000
      XXZZ    -511.5454   XYZZ      -7.2076   YYZZ    -136.4416
      XZZZ       0.0000   YZZZ      -0.0000   ZZZZ    -489.9998
 -----------------------------------------------------------------
 Calculating analytic gradient of the SCF energy
 Gradient of SCF Energy
            1           2           3           4           5           6
    1  -0.0096321   0.0042068  -0.0036488   0.0049704  -0.0198942   0.0014023
    2   0.0003942  -0.0031519  -0.0020281  -0.0104271   0.0076130   0.0012118
    3  -0.0045751  -0.0038269   0.0059272  -0.0040802   0.0097057  -0.0014322
            7           8           9          10          11          12
    1   0.0198942   0.0096321  -0.0049704  -0.0042068   0.0036488   0.0001383
    2  -0.0076130  -0.0003942   0.0104271   0.0031519   0.0020281  -0.0005186
    3   0.0097057  -0.0045751  -0.0040802  -0.0038269   0.0059272  -0.0001799
           13          14          15          16
    1  -0.0001273  -0.0001383   0.0001273  -0.0014023
    2   0.0031387   0.0005186  -0.0031387  -0.0012118
    3  -0.0015385  -0.0001799  -0.0015385  -0.0014322
 Max gradient component =       1.989E-02
 RMS gradient           =       6.207E-03
 Gradient time:  CPU 1.83 s  wall 1.84 s
 Geometry Optimization Parameters
   NAtoms,    NIC,     NZ,  NCons,   NDum,   NFix, NCnnct, MaxDiis
       16     111       0       1       0       0       0       0


** CONSTRAINED OPTIMIZATION IN DELOCALIZED INTERNAL COORDINATES **
   Searching for a Minimum

   Optimization Cycle:   1

                       Coordinates (Angstroms)
     ATOM                X               Y               Z
      1  S         1.7106070388    0.8303266988    0.8956613896
      2  C         3.1997581267    0.1374687510    0.2415879175
      3  C         2.9185116964   -0.7193680162   -0.8062257643
      4  C         1.5457501907   -0.8444094747   -1.1097767821
      5  C         0.7009924647   -0.0670299051   -0.2833674416
      6  H         1.1575906916   -1.4745971346   -1.9028723725
      7  C        -0.7009924647    0.0670299051   -0.2833674416
      8  S        -1.7106070388   -0.8303266988    0.8956613896
      9  C        -1.5457501907    0.8444094747   -1.1097767821
     10  C        -3.1997581267   -0.1374687510    0.2415879175
     11  C        -2.9185116964    0.7193680162   -0.8062257643
     12  H        -3.6961611709    1.2515101252   -1.3492262387
     13  H         4.1568323779    0.4036880875    0.6682091793
     14  H         3.6961611709   -1.2515101252   -1.3492262387
     15  H        -4.1568323779   -0.4036880875    0.6682091793
     16  H        -1.1575906916    1.4745971346   -1.9028723725
   Point Group: c2    Number of degrees of freedom:    22


   Energy is  -1104.819658188

              Constraints and their Current Values
                                        Value     Constraint
   Dihedral:        4   5   7   9      -80.000      -80.000

 Attempting to Generate Delocalized Internal Coordinates

 21 Hessian modes will be used to form the next step
  Hessian Eigenvalues:
     0.045000    0.045000    0.045000    0.045000    0.045000    0.045000
     0.160000    0.160000    0.160000    0.221184    0.237470    0.250000
     0.264210    0.283931    0.350974    0.354198    0.358566    0.414224
     0.425056    0.442595    0.471396

 Minimum Search - Taking Simple RFO Step
 Searching for Lamda that Minimizes Along All modes
 Value Taken    Lamda =  -0.00593576
 Step Taken.  Stepsize is  0.263474

                             Maximum     Tolerance    Cnvgd?
         Gradient           0.014871      0.000300      NO
         Displacement       0.207924      0.001200      NO
         Energy change     *********      0.000001      NO


 New Cartesian Coordinates Obtained by Inverse Iteration

 Displacement from previous Coordinates is:  0.475862
 ----------------------------------------------------------------
             Standard Nuclear Orientation (Angstroms)
    I     Atom           X                Y                Z
 ----------------------------------------------------------------
    1      S       1.7347941675     0.8034448617     0.9273760480
    2      C       3.2163066906     0.1135298137     0.2700609288
    3      C       2.9406447776    -0.6796236409    -0.8305885625
    4      C       1.5641835038    -0.7934050613    -1.1336123574
    5      C       0.7161081748    -0.0440167803    -0.3042154749
    6      H       1.1695525567    -1.4125733134    -1.9324968548
    7      C      -0.7161081748     0.0440167803    -0.3042154749
    8      S      -1.7347941675    -0.8034448617     0.9273760480
    9      C      -1.5641835038     0.7934050613    -1.1336123574
   10      C      -3.2163066906    -0.1135298137     0.2700609288
   11      C      -2.9406447776     0.6796236409    -0.8305885625
   12      H      -3.7161065604     1.2098418317    -1.3793558035
   13      H       4.1700257492     0.3166365801     0.7368219634
   14      H       3.7161065604    -1.2098418317    -1.3793558035
   15      H      -4.1700257492    -0.3166365801     0.7368219634
   16      H      -1.1695525567     1.4125733134    -1.9324968548
 ----------------------------------------------------------------
 Molecular Point Group                 C2    NOp =  2
 Largest Abelian Subgroup              C2    NOp =  2
 Nuclear Repulsion Energy =   621.1042465277 hartrees
 There are       44 alpha and       43 beta electrons
 Applying Cartesian multipole field
    Component          Value
    ---------          -----
     (2,0,0)        1.00000E-11
     (0,2,0)        2.00000E-11
     (0,0,2)       -3.00000E-11
 Nucleus-field energy     =     0.0000000111 hartrees
 Requested basis set is 6-31++G(d,p)
 There are 76 shells and 234 basis functions
 A cutoff of  1.0D-12 yielded   2515 shell pairs
 There are     24825 function pairs
 Smallest overlap matrix eigenvalue = 1.25E-06
 No. of orbitals has changed due to linear dependencies.  Generating new SCF guess.
 Guess from superposition of atomic densities
 Warning:  Energy on first SCF cycle will be non-variational
 An unrestricted hybrid HF-DFT SCF calculation will be
 performed using Relaxed Constraint Minimization + Pulay DIIS
 Exchange:     0.2000 Hartree-Fock + 0.0800 Slater + 0.7200 B88
 Correlation:  0.1900 VWN1RPA + 0.8100 LYP
 Using SG-1 standard quadrature grid
 SCF converges when DIIS error is below 1.0E-08
 Geometry optimization detected.  Setting ReadMinima to 0
 Setting SaveMinima to 0
 Inaccurate integrated density:
   Number of electrons =    87
   Numerical integral  =    85.999864639044
   Relative error      =    -1.1495808747 %
 Inaccurate integrated density:
   Number of electrons =    87
   Numerical integral  =    85.999864639044
   Relative error      =    -1.1495808747 %
 ---------------------------------------
  Cycle       Energy         DIIS Error
 ---------------------------------------
    1   -1106.9338219919      4.24E-02
    2   -1104.5761971248      5.40E-03
    3   -1104.6698183705      1.56E-03
    4   -1104.7787778692      8.80E-04 Done RCA. Switching to DIIS
    5   -1104.7838635331      2.06E-03
    6   -1104.8185180963      6.62E-04
    7   -1104.8215159625      4.38E-04
    8   -1104.8232189218      2.26E-04
    9   -1104.8237830292      6.46E-05
   10   -1104.8238409342      3.29E-05
   11   -1104.8238588273      7.76E-06
   12   -1104.8238631523      3.15E-06
   13   -1104.8238655885      1.62E-06
   14   -1104.8238667500      1.03E-06
   15   -1104.8238678620      8.84E-07
   16   -1104.8238682273      7.50E-07
   17   -1104.8238684063      6.05E-07
   18   -1104.8238685635      4.61E-07
   19   -1104.8238686595      2.75E-07
   20   -1104.8238686981      1.75E-07
   21   -1104.8238687092      9.93E-08
   22   -1104.8238687134      7.00E-08
   23   -1104.8238687155      5.38E-08
   24   -1104.8238687160      2.19E-08
   25   -1104.8238687164      9.88E-09 Convergence criterion met
 ---------------------------------------
 <S^2> = 0.7577
 SCF time:  CPU 17.98 s  wall 16.08 s
 SCF   energy in the final basis set = -1104.8238687164
 Total energy in the final basis set = -1104.8238687164
 
 --------------------------------------------------------------
             Orbital Energies (a.u.) and Symmetries
 --------------------------------------------------------------
 Warning : Irrep of orbital(  73) could not be determined
 Warning : Irrep of orbital(  74) could not be determined
 
 Alpha MOs, Unrestricted
 -- Occupied --                  
-88.749 -88.749 -10.063 -10.062 -10.060 -10.060 -10.048 -10.048
  1 B     1 A     2 A     2 B     3 B     3 A     4 B     4 A                  
-10.040 -10.040  -7.808  -7.808  -5.772  -5.772  -5.769  -5.769
  5 B     5 A     6 B     6 A     7 B     7 A     8 B     8 A                  
 -5.765  -5.765  -0.721  -0.703  -0.603  -0.577  -0.575  -0.538
  9 B     9 A    10 A    10 B    11 A    12 A    11 B    12 B                  
 -0.445  -0.405  -0.404  -0.372  -0.362  -0.318  -0.259  -0.255
 13 A    14 A    13 B    14 B    15 A    15 B    16 A    16 B                  
 -0.252  -0.242  -0.234  -0.212  -0.210  -0.187  -0.186  -0.108
 17 A    17 B    18 A    18 B    19 A    20 A    19 B    21 A                  
 -0.102  -0.092  -0.075   0.065
 20 B    21 B    22 A    22 B                                                  
 -- Virtual --                   
  0.093   0.095   0.109   0.111   0.112   0.125   0.134   0.149
 23 A    23 B    24 A    24 B    25 A    26 A    25 B    27 A                  
  0.151   0.155   0.161   0.174   0.176   0.180   0.182   0.188
 26 B    28 A    27 B    28 B    29 A    30 A    29 B    31 A                  
  0.189   0.198   0.210   0.211   0.218   0.218   0.223   0.227
 30 B    32 A    33 A    31 B    32 B    34 A    35 A    33 B                  
  0.228   0.236   0.237   0.242   0.247   0.247   0.257   0.265
 34 B    36 A    35 B    37 A     0 xxx   0 xxx  36 B    38 A                  
  0.273   0.277   0.280   0.284   0.288   0.290   0.295   0.305
 37 B    38 B    39 A    40 A    39 B    41 A    40 B    41 B                  
  0.305   0.321   0.333   0.338   0.339   0.344   0.346   0.363
 42 A    42 B    43 A    43 B    44 A    45 A    44 B    45 B                  
  0.377   0.381   0.392   0.396   0.406   0.425   0.443   0.447
 46 A    46 B    47 B    47 A    48 A    49 A    48 B    49 B                  
  0.452   0.459   0.470   0.484   0.493   0.507   0.541   0.576
 50 B    50 A    51 A    52 A    51 B    52 B    53 A    53 B                  
  0.611   0.620   0.632   0.668   0.678   0.703   0.720   0.723
 54 A    55 A    54 B    56 A    55 B    56 B    57 A    57 B                  
  0.741   0.755   0.789   0.799   0.810   0.821   0.824   0.841
 58 A    58 B    59 A    59 B    60 A    61 A    60 B    61 B                  
  0.841   0.871   0.872   0.891   0.907   0.916   0.919   0.930
 62 A    62 B    63 A    63 B    64 B    64 A    65 B    65 A                  
  0.955   0.960   0.985   0.996   1.044   1.051   1.095   1.101
 66 B    66 A    67 A    67 B    68 A    68 B    69 B    69 A                  
  1.106   1.110   1.113   1.122   1.126   1.137   1.159   1.160
 70 A    70 B    71 A    71 B    72 A    72 B    73 A    73 B                  
  1.169   1.188   1.198   1.230   1.246   1.250   1.254   1.268
 74 B    74 A    75 B    75 A    76 A    76 B    77 A    77 B                  
  1.330   1.356   1.365   1.392   1.430   1.470   1.500   1.508
 78 A    79 A    78 B    79 B    80 A    80 B    81 A    81 B                  
  1.521   1.522   1.542   1.598   1.634   1.642   1.679   1.731
 82 B    82 A    83 A    83 B    84 B    84 A    85 A    85 B                  
  1.841   1.845   1.955   1.972   1.997   2.040   2.043   2.063
 86 A    86 B    87 B    87 A    88 A    88 B    89 A    89 B                  
  2.073   2.099   2.102   2.159   2.169   2.199   2.239   2.261
 90 A    90 B    91 A    92 A    91 B    92 B    93 A    94 A                  
  2.297   2.332   2.338   2.343   2.396   2.398   2.487   2.514
 93 B    94 B    95 B    95 A    96 B    96 A    97 A    98 A                  
  2.518   2.575   2.594   2.607   2.629   2.639   2.664   2.667
 97 B    98 B    99 A   100 A    99 B   100 B   101 B   101 A                  
  2.680   2.736   2.736   2.774   2.792   2.840   2.857   2.918
102 A   103 A   102 B   103 B   104 A   104 B   105 A   105 B                  
  2.965   3.011   3.025   3.104   3.309   3.331   3.414   3.417
106 A   106 B   107 A   107 B   108 A   108 B   109 B   109 A                  
  3.551   3.575   3.864   3.882   4.120   4.129   4.448   4.460
110 A   110 B   111 A   111 B   112 A   112 B   113 A   114 A                  
  4.478   4.485   4.591   4.680   4.811   4.861
113 B   114 B   115 A   115 B   116 A   116 B                                  
 
 Beta MOs, Unrestricted
 -- Occupied --                  
-88.748 -88.748 -10.060 -10.060 -10.057 -10.057 -10.049 -10.049
  1 B     1 A     2 A     2 B     3 B     3 A     4 B     4 A                  
-10.039 -10.039  -7.807  -7.807  -5.771  -5.771  -5.768  -5.768
  5 B     5 A     6 B     6 A     7 B     7 A     8 B     8 A                  
 -5.763  -5.763  -0.717  -0.700  -0.597  -0.574  -0.572  -0.535
  9 B     9 A    10 A    10 B    11 A    12 A    11 B    12 B                  
 -0.438  -0.403  -0.401  -0.370  -0.360  -0.315  -0.257  -0.252
 13 A    14 A    13 B    14 B    15 A    15 B    16 A    16 B                  
 -0.249  -0.236  -0.231  -0.206  -0.203  -0.183  -0.182  -0.101
 17 A    17 B    18 A    18 B    19 A    20 A    19 B    21 A                  
 -0.094  -0.077  -0.061
 20 B    21 B    22 A                                                          
 -- Virtual --                   
  0.092   0.094   0.109   0.111   0.116   0.122   0.129   0.134
 23 A    22 B    24 A    23 B    24 B    25 A    26 A    25 B                  
  0.149   0.150   0.158   0.161   0.175   0.176   0.183   0.186
 27 A    26 B    28 A    27 B    28 B    29 A    30 A    29 B                  
  0.189   0.190   0.198   0.210   0.213   0.218   0.218   0.223
 31 A    30 B    32 A    33 A    31 B    32 B    34 A    35 A                  
  0.229   0.230   0.237   0.237   0.243   0.247   0.248   0.258
 33 B    34 B    36 A    35 B    37 A    38 A    36 B    37 B                  
  0.269   0.273   0.279   0.280   0.285   0.288   0.291   0.296
 39 A    38 B    39 B    40 A    41 A    40 B    42 A    41 B                  
  0.307   0.311   0.322   0.335   0.339   0.340   0.343   0.346
 42 B    43 A    43 B    44 A    44 B    45 A    46 A    45 B                  
  0.363   0.377   0.382   0.393   0.397   0.406   0.426   0.445
 46 B    47 A    47 B    48 B    48 A    49 A    50 A    49 B                  
  0.448   0.455   0.460   0.472   0.485   0.493   0.509   0.542
 50 B    51 B    51 A    52 A    53 A    52 B    53 B    54 A                  
  0.578   0.614   0.622   0.635   0.670   0.680   0.705   0.722
 54 B    55 A    56 A    55 B    57 A    56 B    57 B    58 A                  
  0.726   0.743   0.757   0.793   0.803   0.816   0.828   0.833
 58 B    59 A    59 B    60 A    60 B    61 A    62 A    61 B                  
  0.843   0.846   0.874   0.874   0.893   0.910   0.921   0.924
 63 A    62 B    64 A    63 B    64 B    65 B    65 A    66 B                  
  0.932   0.959   0.962   0.991   1.001   1.046   1.053   1.098
 66 A    67 B    67 A    68 A    68 B    69 A    69 B    70 B                  
  1.103   1.106   1.111   1.118   1.126   1.128   1.139   1.162
 70 A    71 A    71 B    72 A    72 B    73 A    73 B    74 B                  
  1.163   1.171   1.189   1.201   1.232   1.249   1.254   1.257
 74 A    75 B    75 A    76 B    76 A    77 A    77 B    78 A                  
  1.272   1.333   1.359   1.367   1.394   1.434   1.473   1.505
 78 B    79 A    80 A    79 B    80 B    81 A    81 B    82 A                  
  1.512   1.524   1.524   1.545   1.600   1.636   1.646   1.682
 82 B    83 A    83 B    84 A    84 B    85 B    85 A    86 A                  
  1.736   1.850   1.854   1.964   1.975   2.001   2.043   2.047
 86 B    87 A    87 B    88 B    88 A    89 A    89 B    90 A                  
  2.064   2.077   2.103   2.104   2.162   2.172   2.201   2.244
 90 B    91 A    91 B    92 A    93 A    92 B    93 B    94 A                  
  2.267   2.304   2.339   2.342   2.351   2.399   2.403   2.491
 95 A    94 B    95 B    96 B    96 A    97 B    97 A    98 A                  
  2.516   2.520   2.578   2.598   2.609   2.631   2.643   2.668
 99 A    98 B    99 B   100 A   101 A   100 B   101 B   102 B                  
  2.668   2.684   2.738   2.739   2.776   2.796   2.842   2.860
102 A   103 A   104 A   103 B   104 B   105 A   105 B   106 A                  
  2.921   2.968   3.012   3.028   3.106   3.310   3.332   3.414
106 B   107 A   107 B   108 A   108 B   109 A   109 B   110 B                  
  3.417   3.552   3.576   3.864   3.883   4.122   4.131   4.452
110 A   111 A   111 B   112 A   112 B   113 A   113 B   114 A                  
  4.463   4.480   4.489   4.596   4.685   4.813   4.863
115 A   114 B   115 B   116 A   116 B   117 A   117 B                          
 --------------------------------------------------------------
 
          Ground-State Mulliken Net Atomic Charges

     Atom                 Charge (a.u.)    Spin (a.u.)
  --------------------------------------------------------
      1 S                    -0.163357       0.135003
      2 C                    -0.137124       0.198813
      3 C                    -0.381516      -0.025379
      4 C                     0.156957       0.135058
      5 C                    -0.259719       0.042331
      6 H                     0.090767       0.000710
      7 C                    -0.259742       0.042351
      8 S                    -0.163344       0.134990
      9 C                     0.156936       0.135081
     10 C                    -0.137131       0.198824
     11 C                    -0.381496      -0.025403
     12 H                     0.068491       0.006116
     13 H                     0.125521       0.007330
     14 H                     0.068500       0.006106
     15 H                     0.125502       0.007349
     16 H                     0.090757       0.000720
  --------------------------------------------------------
  Sum of atomic charges =    -1.000000
  Sum of spin   charges =     1.000000

 -----------------------------------------------------------------
                    Cartesian Multipole Moments
 -----------------------------------------------------------------
    Charge (ESU x 10^10)
                -4.8032
    Dipole Moment (Debye)
         X       0.0001      Y      -0.0001      Z      -0.6605
       Tot       0.6605
    Quadrupole Moments (Debye-Ang)
        XX    -100.8000     XY      -2.0620     YY     -86.7147
        XZ       0.0001     YZ       0.0002     ZZ     -84.9867
    Octopole Moments (Debye-Ang^2)
       XXX       0.0038    XXY       0.0004    XYY       0.0013
       YYY      -0.0014    XXZ       7.4086    XYZ       4.7349
       YYZ      -1.9147    XZZ       0.0004    YZZ      -0.0002
       ZZZ      -2.1606
    Hexadecapole Moments (Debye-Ang^3)
      XXXX   -2554.0954   XXXY     -16.0626   XXYY    -516.0694
      XYYY       9.2906   YYYY    -394.3866   XXXZ      -0.0003
      XXYZ       0.0023   XYYZ      -0.0007   YYYZ       0.0025
      XXZZ    -514.9878   XYZZ      -8.5943   YYZZ    -134.5438
      XZZZ       0.0028   YZZZ       0.0020   ZZZZ    -509.7727
 -----------------------------------------------------------------
 Calculating analytic gradient of the SCF energy
 Gradient of SCF Energy
            1           2           3           4           5           6
    1  -0.0030944   0.0028063  -0.0017934   0.0008738   0.0019984   0.0002834
    2   0.0007595  -0.0023476   0.0003397  -0.0064818   0.0042138   0.0010192
    3  -0.0039716  -0.0002205   0.0022805   0.0024854   0.0011801  -0.0005134
            7           8           9          10          11          12
    1  -0.0019983   0.0030944  -0.0008739  -0.0028062   0.0017933  -0.0002997
    2  -0.0042136  -0.0007596   0.0064817   0.0023478  -0.0003398   0.0000359
    3   0.0011804  -0.0039721   0.0024851  -0.0002202   0.0022804  -0.0001128
           13          14          15          16
    1  -0.0000707   0.0002997   0.0000705  -0.0002834
    2   0.0020726  -0.0000360  -0.0020726  -0.0010193
    3  -0.0011275  -0.0001128  -0.0011274  -0.0005134
 Max gradient component =       6.482E-03
 RMS gradient           =       2.301E-03
 Gradient time:  CPU 1.88 s  wall 1.83 s
 Geometry Optimization Parameters
   NAtoms,    NIC,     NZ,  NCons,   NDum,   NFix, NCnnct, MaxDiis
       16     111       0       1       0       0       0       0

 Cartesian Hessian Update
 Hessian Updated using BFGS Update


** CONSTRAINED OPTIMIZATION IN DELOCALIZED INTERNAL COORDINATES **
   Searching for a Minimum

   Optimization Cycle:   2

                       Coordinates (Angstroms)
     ATOM                X               Y               Z
      1  S         1.7347941675    0.8034448617    0.9273760480
      2  C         3.2163066906    0.1135298137    0.2700609288
      3  C         2.9406447776   -0.6796236409   -0.8305885625
      4  C         1.5641835038   -0.7934050613   -1.1336123574
      5  C         0.7161081748   -0.0440167803   -0.3042154749
      6  H         1.1695525567   -1.4125733134   -1.9324968548
      7  C        -0.7161081748    0.0440167803   -0.3042154749
      8  S        -1.7347941675   -0.8034448617    0.9273760480
      9  C        -1.5641835038    0.7934050613   -1.1336123574
     10  C        -3.2163066906   -0.1135298137    0.2700609288
     11  C        -2.9406447776    0.6796236409   -0.8305885625
     12  H        -3.7161065604    1.2098418317   -1.3793558035
     13  H         4.1700257492    0.3166365801    0.7368219634
     14  H         3.7161065604   -1.2098418317   -1.3793558035
     15  H        -4.1700257492   -0.3166365801    0.7368219634
     16  H        -1.1695525567    1.4125733134   -1.9324968548
   Point Group: c2    Number of degrees of freedom:    22


   Energy is  -1104.823868716

              Constraints and their Current Values
                                        Value     Constraint
   Dihedral:        4   5   7   9      -80.000      -80.000
 Hessian Updated using BFGS Update

 17 Hessian modes will be used to form the next step
  Hessian Eigenvalues:
     0.024417    0.046502    0.159563    0.160000    0.160448    0.217103
     0.239469    0.251164    0.257812    0.283726    0.351034    0.354171
     0.358571    0.411289    0.424843    0.470635    0.524604

 Minimum Search - Taking Simple RFO Step
 Searching for Lamda that Minimizes Along All modes
 Value Taken    Lamda =  -0.00318047
 Calculated Step too Large.  Step scaled by  0.904545
 Step Taken.  Stepsize is  0.300000

                             Maximum     Tolerance    Cnvgd?
         Gradient           0.007573      0.000300      NO
         Displacement       0.239774      0.001200      NO
         Energy change     -0.004211      0.000001      NO


 New Cartesian Coordinates Obtained by Inverse Iteration

 Displacement from previous Coordinates is:  0.560298
 ----------------------------------------------------------------
             Standard Nuclear Orientation (Angstroms)
    I     Atom           X                Y                Z
 ----------------------------------------------------------------
    1      S       1.7230616721     0.7633595048     0.9667209947
    2      C       3.2038247585     0.0875307582     0.3056226441
    3      C       2.9523135917    -0.6387699868    -0.8481039909
    4      C       1.5789136073    -0.7352433978    -1.1732149257
    5      C       0.7192199991    -0.0159618654    -0.3389518097
    6      H       1.1911735209    -1.3414399069    -1.9862755063
    7      C      -0.7192199991     0.0159618654    -0.3389518097
    8      S      -1.7230616721    -0.7633595048     0.9667209947
    9      C      -1.5789136073     0.7352433978    -1.1732149257
   10      C      -3.2038247585    -0.0875307582     0.3056226441
   11      C      -2.9523135917     0.6387699868    -0.8481039909
   12      H      -3.7318783446     1.1638891719    -1.3949049993
   13      H       4.1446556887     0.2157703838     0.8230974804
   14      H       3.7318783446    -1.1638891719    -1.3949049993
   15      H      -4.1446556887    -0.2157703838     0.8230974804
   16      H      -1.1911735209     1.3414399069    -1.9862755063
 ----------------------------------------------------------------
 Molecular Point Group                 C2    NOp =  2
 Largest Abelian Subgroup              C2    NOp =  2
 Nuclear Repulsion Energy =   620.8409337675 hartrees
 There are       44 alpha and       43 beta electrons
 Applying Cartesian multipole field
    Component          Value
    ---------          -----
     (2,0,0)        1.00000E-11
     (0,2,0)        2.00000E-11
     (0,0,2)       -3.00000E-11
 Nucleus-field energy     =     0.0000000102 hartrees
 Requested basis set is 6-31++G(d,p)
 There are 76 shells and 234 basis functions
 A cutoff of  1.0D-12 yielded   2515 shell pairs
 There are     24825 function pairs
 Smallest overlap matrix eigenvalue = 1.57E-06
 Guess MOs from SCF MO coefficient file
 Reading MOs from coefficient file
 Reading MOs from coefficient file
 An unrestricted hybrid HF-DFT SCF calculation will be
 performed using Relaxed Constraint Minimization + Pulay DIIS
 Exchange:     0.2000 Hartree-Fock + 0.0800 Slater + 0.7200 B88
 Correlation:  0.1900 VWN1RPA + 0.8100 LYP
 Using SG-1 standard quadrature grid
 SCF converges when DIIS error is below 1.0E-08
 Geometry optimization detected.  Setting ReadMinima to 0
 Setting SaveMinima to 0
 Inaccurate integrated density:
   Number of electrons =    87
   Numerical integral  =    86.952189012974
   Relative error      =    -0.0549551575 %
 Inaccurate integrated density:
   Number of electrons =    87
   Numerical integral  =    86.952189012974
   Relative error      =    -0.0549551575 %
 ---------------------------------------
  Cycle       Energy         DIIS Error
 ---------------------------------------
    1   -1104.8053848747      2.50E-03
    2   -1104.8247771371      3.16E-04 Done RCA. Switching to DIIS
    3   -1104.8229831774      5.81E-04
    4   -1104.8257337279      1.27E-04
    5   -1104.8258675736      3.52E-05
    6   -1104.8258778131      1.63E-05
    7   -1104.8258814228      5.06E-06
    8   -1104.8258822427      1.46E-06
    9   -1104.8258825631      9.95E-07
   10   -1104.8258827716      4.65E-07
   11   -1104.8258828724      2.63E-07
   12   -1104.8258828946      1.26E-07
   13   -1104.8258828990      7.46E-08
   14   -1104.8258829004      2.67E-08
   15   -1104.8258829005      1.51E-08
   16   -1104.8258829006      1.16E-08
   17   -1104.8258829006      2.97E-09 Convergence criterion met
 ---------------------------------------
 <S^2> = 0.7589
 SCF time:  CPU 12.30 s  wall 10.94 s
 SCF   energy in the final basis set = -1104.8258829006
 Total energy in the final basis set = -1104.8258829006
 
 --------------------------------------------------------------
             Orbital Energies (a.u.) and Symmetries
 --------------------------------------------------------------
 
 Alpha MOs, Unrestricted
 -- Occupied --                  
-88.748 -88.748 -10.063 -10.062 -10.059 -10.059 -10.048 -10.048
  1 B     1 A     2 A     2 B     3 B     3 A     4 B     4 A                  
-10.039 -10.039  -7.807  -7.807  -5.771  -5.771  -5.768  -5.768
  5 B     5 A     6 B     6 A     7 B     7 A     8 B     8 A                  
 -5.764  -5.764  -0.720  -0.702  -0.602  -0.577  -0.574  -0.537
  9 B     9 A    10 A    10 B    11 A    12 A    11 B    12 B                  
 -0.444  -0.405  -0.403  -0.372  -0.361  -0.317  -0.258  -0.253
 13 A    14 A    13 B    14 B    15 A    15 B    16 A    16 B                  
 -0.252  -0.240  -0.233  -0.212  -0.209  -0.187  -0.185  -0.108
 17 A    17 B    18 A    18 B    19 A    20 A    19 B    21 A                  
 -0.102  -0.093  -0.072   0.062
 20 B    21 B    22 A    22 B                                                  
 -- Virtual --                   
  0.093   0.096   0.110   0.112   0.116   0.125   0.135   0.149
 23 A    23 B    24 A    24 B    25 A    26 A    25 B    27 A                  
  0.151   0.153   0.162   0.175   0.176   0.179   0.182   0.187
 26 B    28 A    27 B    28 B    29 A    30 A    29 B    31 A                  
  0.190   0.200   0.211   0.212   0.216   0.219   0.224   0.228
 30 B    32 A    33 A    31 B    32 B    34 A    35 A    33 B                  
  0.229   0.235   0.239   0.242   0.249   0.249   0.259   0.262
 34 B    36 A    35 B    37 A    36 B    38 A    37 B    39 A                  
  0.274   0.278   0.282   0.283   0.288   0.293   0.293   0.302
 38 B    39 B    40 A    41 A    40 B    42 A    41 B    43 A                  
  0.306   0.323   0.334   0.336   0.340   0.344   0.345   0.360
 42 B    43 B    44 A    45 A    44 B    45 B    46 A    46 B                  
  0.379   0.383   0.393   0.398   0.407   0.427   0.442   0.446
 47 B    47 A    48 B    48 A    49 A    50 A    49 B    50 B                  
  0.454   0.460   0.470   0.483   0.491   0.508   0.543   0.575
 51 B    51 A    52 A    53 A    52 B    53 B    54 A    54 B                  
  0.609   0.626   0.632   0.667   0.672   0.708   0.720   0.721
 55 A    56 A    55 B    57 A    56 B    57 B    58 A    58 B                  
  0.745   0.754   0.785   0.805   0.805   0.820   0.822   0.843
 59 A    59 B    60 A    60 B    61 A    62 A    61 B    63 A                  
  0.846   0.871   0.871   0.892   0.908   0.913   0.919   0.926
[...]
      4 C                    -0.000325       0.169778
      5 C                    -0.112328       0.039668
      6 H                     0.102229      -0.005237
      7 C                    -0.112328       0.039668
      8 S                    -0.193429       0.126693
      9 C                    -0.000325       0.169778
     10 C                    -0.183485       0.230187
     11 C                    -0.326798      -0.056229
     12 H                     0.072060       0.002237
     13 H                     0.142076      -0.007096
     14 H                     0.072060       0.002237
     15 H                     0.142076      -0.007096
     16 H                     0.102229      -0.005237
  --------------------------------------------------------
  Sum of atomic charges =    -1.000000
  Sum of spin   charges =     1.000000

 -----------------------------------------------------------------
                    Cartesian Multipole Moments
 -----------------------------------------------------------------
    Charge (ESU x 10^10)
                -4.8032
    Dipole Moment (Debye)
         X      -0.0000      Y      -0.0000      Z      -0.3929
       Tot       0.3929
    Quadrupole Moments (Debye-Ang)
        XX    -100.6874     XY      -3.0940     YY     -85.9211
        XZ       0.0000     YZ       0.0000     ZZ     -84.2552
    Octopole Moments (Debye-Ang^2)
       XXX      -0.0000    XXY       0.0000    XYY       0.0000
       YYY      -0.0000    XXZ       9.8055    XYZ       4.7677
       YYZ      -2.8180    XZZ       0.0000    YZZ      -0.0000
       ZZZ      -2.2999
    Hexadecapole Moments (Debye-Ang^3)
      XXXX   -2520.6351   XXXY     -17.7016   XXYY    -494.7750
      XYYY      30.7917   YYYY    -306.2385   XXXZ      -0.0000
      XXYZ       0.0000   XYYZ       0.0000   YYYZ       0.0000
      XXZZ    -503.2370   XYZZ      -0.1303   YYZZ    -135.2120
      XZZZ       0.0000   YZZZ       0.0000   ZZZZ    -567.9979
 -----------------------------------------------------------------
 Calculating analytic gradient of the SCF energy
 Gradient of SCF Energy
            1           2           3           4           5           6
    1   0.0000014   0.0000097   0.0000008   0.0001734  -0.0003757  -0.0000024
    2   0.0000107   0.0000376  -0.0000493  -0.0070004   0.0156721  -0.0000057
    3  -0.0000103  -0.0000130   0.0000212   0.0059003  -0.0058975   0.0000045
            7           8           9          10          11          12
    1   0.0003757  -0.0000014  -0.0001734  -0.0000097  -0.0000008  -0.0000054
    2  -0.0156721  -0.0000107   0.0070004  -0.0000376   0.0000493  -0.0000336
    3  -0.0058975  -0.0000103   0.0059003  -0.0000130   0.0000212  -0.0000185
           13          14          15          16
    1  -0.0000075   0.0000054   0.0000075   0.0000024
    2  -0.0000204   0.0000336   0.0000204   0.0000057
    3   0.0000134  -0.0000185   0.0000134   0.0000045
 Max gradient component =       1.567E-02
 RMS gradient           =       3.897E-03
 Gradient time:  CPU 1.83 s  wall 1.84 s
 Geometry Optimization Parameters
   NAtoms,    NIC,     NZ,  NCons,   NDum,   NFix, NCnnct, MaxDiis
       16     111       0       1       0       0       0       0

 Cartesian Hessian Update
 Hessian Updated using BFGS Update


** CONSTRAINED OPTIMIZATION IN DELOCALIZED INTERNAL COORDINATES **
   Searching for a Minimum

   Optimization Cycle:  10

                       Coordinates (Angstroms)
     ATOM                X               Y               Z
      1  S         1.6561418171    0.6477444164    1.0179103053
      2  C         3.1728660320    0.0359841897    0.3721136301
      3  C         2.9710654659   -0.6052283149   -0.8392745732
      4  C         1.6191961561   -0.6574634702   -1.2458776460
      5  C         0.7155280541    0.0200835946   -0.4085100417
      6  H         1.2743048724   -1.2044556838   -2.1180871764
      7  C        -0.7155280541   -0.0200835946   -0.4085100417
      8  S        -1.6561418171   -0.6477444164    1.0179103053
      9  C        -1.6191961561    0.6574634702   -1.2458776460
     10  C        -3.1728660320   -0.0359841897    0.3721136301
     11  C        -2.9710654659    0.6052283149   -0.8392745732
     12  H        -3.7755484764    1.0873918769   -1.3895356501
     13  H         4.0771312186    0.0704749848    0.9652510394
     14  H         3.7755484764   -1.0873918769   -1.3895356501
     15  H        -4.0771312186   -0.0704749848    0.9652510394
     16  H        -1.2743048724    1.2044556838   -2.1180871764
   Point Group: c2    Number of degrees of freedom:    22


   Energy is  -1104.827206157

              Constraints and their Current Values
                                        Value     Constraint
   Dihedral:        4   5   7   9      -80.000      -80.000
 Hessian Updated using BFGS Update

 21 Hessian modes will be used to form the next step
  Hessian Eigenvalues:
     0.010632    0.016350    0.025066    0.045024    0.045199    0.047521
     0.157928    0.160130    0.160370    0.214744    0.230357    0.247210
     0.254172    0.283462    0.351165    0.354264    0.358734    0.416485
     0.427557    0.470083    0.503932

 Minimum Search - Taking Simple RFO Step
 Searching for Lamda that Minimizes Along All modes
 Value Taken    Lamda =   0.00000000
 Step Taken.  Stepsize is  0.002751

                             Maximum     Tolerance    Cnvgd?
         Gradient           0.000037      0.000300     YES
         Displacement       0.002089      0.001200      NO
         Energy change     -0.000000      0.000001     YES

 Final energy is   -1104.82720615668     


 ******************************
 **  OPTIMIZATION CONVERGED  **
 ******************************

                       Coordinates (Angstroms)
     ATOM                X               Y               Z
      1  S         1.6561418171    0.6477444164    1.0179103053
      2  C         3.1728660320    0.0359841897    0.3721136301
      3  C         2.9710654659   -0.6052283149   -0.8392745732
      4  C         1.6191961561   -0.6574634702   -1.2458776460
      5  C         0.7155280541    0.0200835946   -0.4085100417
      6  H         1.2743048724   -1.2044556838   -2.1180871764
      7  C        -0.7155280541   -0.0200835946   -0.4085100417
      8  S        -1.6561418171   -0.6477444164    1.0179103053
      9  C        -1.6191961561    0.6574634702   -1.2458776460
     10  C        -3.1728660320   -0.0359841897    0.3721136301
     11  C        -2.9710654659    0.6052283149   -0.8392745732
     12  H        -3.7755484764    1.0873918769   -1.3895356501
     13  H         4.0771312186    0.0704749848    0.9652510394
     14  H         3.7755484764   -1.0873918769   -1.3895356501
     15  H        -4.0771312186   -0.0704749848    0.9652510394
     16  H        -1.2743048724    1.2044556838   -2.1180871764

Z-matrix Print:
$molecule
-1 2
S 
C  1 1.758339
H  2 1.081988 1 120.562319
C  2 1.385402 1 110.887085 3 -172.233987 0
H  4 1.087411 2 122.678830 1 177.727589 0
C  4 1.412659 2 114.090774 1 1.936638 0
H  6 1.085772 4 123.629492 2 173.882806 0
C  6 1.406012 4 115.202665 2 -3.999432 0
C  8 1.431620 6 128.972219 4 168.701772 0
C  9 1.406012 8 128.972219 6 79.999988 0
H  10 1.085772 9 121.133393 8 -9.238211 0
C  10 1.412659 9 115.202665 8 168.701772 0
H  12 1.087411 10 123.088555 9 -179.770843 0
C  12 1.385402 10 114.090774 9 -3.999432 0
H  14 1.081988 12 128.012025 10 -169.570779 0
S  14 1.758339 12 110.887085 10 1.936638 0
$end

 
 --------------------------------------------------------------
             Orbital Energies (a.u.) and Symmetries
 --------------------------------------------------------------
 
 Alpha MOs, Unrestricted
 -- Occupied --                  
-88.747 -88.747 -10.064 -10.063 -10.058 -10.058 -10.048 -10.048
  1 B     1 A     2 A     2 B     3 B     3 A     4 B     4 A                  
-10.038 -10.038  -7.806  -7.806  -5.770  -5.770  -5.767  -5.767
  5 A     5 B     6 B     6 A     7 B     7 A     8 B     8 A                  
 -5.763  -5.763  -0.720  -0.701  -0.602  -0.577  -0.572  -0.536
  9 B     9 A    10 A    10 B    11 A    12 A    11 B    12 B                  
 -0.444  -0.406  -0.400  -0.370  -0.361  -0.316  -0.259  -0.252
 13 A    14 A    13 B    14 B    15 A    15 B    16 A    17 A                  
 -0.251  -0.239  -0.234  -0.211  -0.207  -0.188  -0.182  -0.107
 16 B    17 B    18 A    18 B    19 A    20 A    19 B    21 A                  
 -0.105  -0.097  -0.066   0.057
 20 B    21 B    22 A    22 B                                                  
 -- Virtual --                   
  0.094   0.096   0.110   0.114   0.119   0.125   0.136   0.151
 23 A    23 B    24 A    24 B    25 A    26 A    25 B    27 A                  
  0.153   0.154   0.167   0.175   0.175   0.179   0.182   0.188
 26 B    28 A    27 B    28 B    29 A    30 A    29 B    31 A                  
  0.194   0.202   0.212   0.213   0.213   0.220   0.227   0.229
 30 B    32 A    31 B    33 A    32 B    34 A    35 A    33 B                  
  0.231   0.234   0.242   0.243   0.251   0.252   0.258   0.261
 34 B    36 A    37 A    35 B    38 A    36 B    39 A    37 B                  
  0.273   0.278   0.279   0.288   0.289   0.293   0.295   0.300
 38 B    40 A    39 B    40 B    41 A    41 B    42 A    43 A                  
  0.309   0.329   0.331   0.333   0.341   0.342   0.346   0.361
 42 B    43 B    44 A    45 A    44 B    45 B    46 A    46 B                  
  0.374   0.388   0.398   0.398   0.408   0.428   0.435   0.448
 47 B    47 A    48 B    48 A    49 A    50 A    49 B    50 B                  
  0.457   0.462   0.466   0.480   0.489   0.509   0.548   0.569
 51 B    51 A    52 A    53 A    52 B    53 B    54 A    54 B                  
  0.605   0.629   0.634   0.662   0.664   0.712   0.716   0.718
 55 A    56 A    55 B    57 A    56 B    57 B    58 A    58 B                  
  0.749   0.760   0.765   0.811   0.812   0.815   0.821   0.842
 59 A    60 A    59 B    60 B    61 A    62 A    61 B    63 A                  
  0.855   0.871   0.871   0.892   0.907   0.908   0.923   0.928
 62 B    63 B    64 A    64 B    65 A    65 B    66 A    66 B                  
  0.951   0.963   0.983   0.992   1.044   1.048   1.093   1.098
 67 B    67 A    68 A    68 B    69 A    69 B    70 A    70 B                  
  1.105   1.106   1.117   1.121   1.126   1.133   1.151   1.151
 71 A    71 B    72 A    72 B    73 A    73 B    74 B    74 A                  
  1.180   1.183   1.201   1.234   1.251   1.253   1.259   1.262
 75 B    75 A    76 B    76 A    77 A    77 B    78 B    78 A                  
  1.319   1.345   1.356   1.382   1.440   1.470   1.483   1.490
 79 A    80 A    79 B    80 B    81 A    81 B    82 B    82 A                  
  1.519   1.544   1.548   1.560   1.628   1.636   1.682   1.770
 83 A    83 B    84 B    84 A    85 A    85 B    86 A    86 B                  
  1.847   1.855   1.875   1.980   2.026   2.042   2.054   2.059
 87 A    87 B    88 B    88 A    89 A    89 B    90 A    90 B                  
  2.083   2.097   2.106   2.164   2.170   2.182   2.242   2.262
 91 A    91 B    92 A    93 A    92 B    93 B    94 A    95 A                  
  2.292   2.319   2.326   2.347   2.393   2.412   2.480   2.523
 94 B    96 A    95 B    96 B    97 A    97 B    98 A    99 A                  
  2.527   2.576   2.584   2.599   2.620   2.639   2.663   2.671
 98 B    99 B   100 A   101 A   100 B   101 B   102 A   102 B                  
  2.692   2.733   2.738   2.773   2.804   2.837   2.865   2.907
103 A   104 A   103 B   104 B   105 A   105 B   106 A   106 B                  
  2.959   3.019   3.029   3.095   3.308   3.333   3.416   3.418
107 A   107 B   108 A   108 B   109 A   109 B   110 B   110 A                  
  3.548   3.567   3.859   3.876   4.107   4.146   4.445   4.466
111 A   111 B   112 A   112 B   113 A   113 B   114 A   115 A                  
  4.477   4.483   4.591   4.677   4.811   4.852
114 B   115 B   116 A   116 B   117 A   117 B                                  
 
 Beta MOs, Unrestricted
 -- Occupied --                  
-88.747 -88.747 -10.061 -10.061 -10.055 -10.055 -10.048 -10.048
  1 B     1 A     2 A     2 B     3 B     3 A     4 B     4 A                  
-10.036 -10.036  -7.805  -7.805  -5.770  -5.770  -5.767  -5.767
  5 A     5 B     6 B     6 A     7 B     7 A     8 B     8 A                  
 -5.762  -5.762  -0.716  -0.698  -0.597  -0.574  -0.569  -0.533
  9 B     9 A    10 A    10 B    11 A    12 A    11 B    12 B                  
 -0.438  -0.404  -0.396  -0.368  -0.359  -0.314  -0.257  -0.250
 13 A    14 A    13 B    14 B    15 A    15 B    16 A    17 A                  
 -0.248  -0.232  -0.231  -0.206  -0.199  -0.185  -0.178  -0.099
 16 B    17 B    18 A    18 B    19 A    20 A    19 B    21 A                  
 -0.093  -0.086  -0.050
 20 B    21 B    22 A                                                          
 -- Virtual --                   
  0.094   0.096   0.109   0.110   0.113   0.123   0.133   0.136
 23 A    22 B    24 A    23 B    24 B    25 A    26 A    25 B                  
  0.151   0.153   0.158   0.167   0.175   0.175   0.182   0.186
 27 A    26 B    28 A    27 B    29 A    28 B    30 A    29 B                  
  0.190   0.196   0.202   0.212   0.213   0.215   0.220   0.227
 31 A    30 B    32 A    31 B    33 A    32 B    34 A    35 A                  
  0.229   0.232   0.236   0.244   0.245   0.251   0.253   0.262
 33 B    34 B    36 A    35 B    37 A    38 A    36 B    39 A                  
  0.262   0.274   0.279   0.280   0.289   0.290   0.294   0.298
 37 B    38 B    40 A    39 B    40 B    41 A    41 B    42 A                  
  0.305   0.311   0.329   0.331   0.334   0.341   0.343   0.346
 43 A    42 B    43 B    44 A    45 A    44 B    45 B    46 A                  
  0.362   0.375   0.388   0.399   0.399   0.409   0.429   0.436
 46 B    47 B    47 A    48 B    48 A    49 A    50 A    49 B                  
  0.450   0.460   0.462   0.469   0.481   0.490   0.511   0.549
 50 B    51 B    51 A    52 A    53 A    52 B    53 B    54 A                  
  0.571   0.607   0.632   0.637   0.665   0.666   0.714   0.719
 54 B    55 A    56 A    55 B    57 A    56 B    57 B    58 A                  
  0.722   0.752   0.761   0.767   0.814   0.819   0.823   0.832
 58 B    59 A    60 A    59 B    60 B    61 A    62 A    61 B                  
  0.845   0.857   0.873   0.874   0.894   0.911   0.912   0.926
 63 A    62 B    64 A    63 B    64 B    65 A    65 B    66 A                  
  0.932   0.955   0.964   0.989   0.998   1.046   1.051   1.096
 66 B    67 B    67 A    68 A    68 B    69 A    69 B    70 A                  
  1.102   1.106   1.107   1.122   1.125   1.128   1.134   1.153
 70 B    71 A    71 B    72 A    72 B    73 A    73 B    74 B                  
  1.153   1.182   1.185   1.204   1.237   1.254   1.257   1.262
 74 A    75 B    75 A    76 B    76 A    77 A    77 B    78 B                  
  1.264   1.320   1.349   1.359   1.384   1.443   1.473   1.486
 78 A    79 A    80 A    79 B    80 B    81 A    81 B    82 B                  
  1.495   1.521   1.547   1.553   1.563   1.632   1.638   1.685
 82 A    83 A    83 B    84 B    84 A    85 A    85 B    86 A                  
  1.775   1.857   1.865   1.884   1.982   2.027   2.044   2.060
 86 B    87 A    87 B    88 B    88 A    89 A    89 B    90 A                  
  2.061   2.085   2.102   2.110   2.167   2.174   2.184   2.247
 90 B    91 A    91 B    92 A    93 A    92 B    93 B    94 A                  
  2.268   2.297   2.329   2.333   2.353   2.396   2.415   2.485
 95 A    94 B    96 A    95 B    96 B    97 A    97 B    98 A                  
  2.525   2.528   2.579   2.588   2.601   2.622   2.644   2.664
 99 A    98 B    99 B   100 A   101 A   100 B   101 B   102 A                  
  2.674   2.696   2.736   2.742   2.776   2.807   2.839   2.868
102 B   103 A   104 A   103 B   104 B   105 A   105 B   106 A                  
  2.909   2.962   3.021   3.032   3.097   3.309   3.334   3.416
106 B   107 A   107 B   108 A   108 B   109 A   109 B   110 B                  
  3.418   3.549   3.569   3.860   3.877   4.109   4.148   4.450
110 A   111 A   111 B   112 A   112 B   113 A   113 B   114 A                  
  4.468   4.481   4.485   4.596   4.682   4.813   4.855
115 A   114 B   115 B   116 A   116 B   117 A   117 B                          
 --------------------------------------------------------------
 
          Ground-State Mulliken Net Atomic Charges

     Atom                 Charge (a.u.)    Spin (a.u.)
  --------------------------------------------------------
      1 S                    -0.193429       0.126693
      2 C                    -0.183485       0.230187
      3 C                    -0.326798      -0.056229
      4 C                    -0.000325       0.169778
      5 C                    -0.112328       0.039668
      6 H                     0.102229      -0.005237
      7 C                    -0.112328       0.039668
      8 S                    -0.193429       0.126693
      9 C                    -0.000325       0.169778
     10 C                    -0.183485       0.230187
     11 C                    -0.326798      -0.056229
     12 H                     0.072060       0.002237
     13 H                     0.142076      -0.007096
     14 H                     0.072060       0.002237
     15 H                     0.142076      -0.007096
     16 H                     0.102229      -0.005237
  --------------------------------------------------------
  Sum of atomic charges =    -1.000000
  Sum of spin   charges =     1.000000

 -----------------------------------------------------------------
                    Cartesian Multipole Moments
 -----------------------------------------------------------------
    Charge (ESU x 10^10)
                -4.8032
    Dipole Moment (Debye)
         X      -0.0000      Y      -0.0000      Z      -0.3929
       Tot       0.3929
    Quadrupole Moments (Debye-Ang)
        XX    -100.6874     XY      -3.0940     YY     -85.9211
        XZ       0.0000     YZ       0.0000     ZZ     -84.2552
    Octopole Moments (Debye-Ang^2)
       XXX      -0.0000    XXY       0.0000    XYY       0.0000
       YYY      -0.0000    XXZ       9.8055    XYZ       4.7677
       YYZ      -2.8180    XZZ       0.0000    YZZ      -0.0000
       ZZZ      -2.2999
    Hexadecapole Moments (Debye-Ang^3)
      XXXX   -2520.6351   XXXY     -17.7016   XXYY    -494.7750
      XYYY      30.7917   YYYY    -306.2385   XXXZ      -0.0000
      XXYZ       0.0000   XYYZ       0.0000   YYYZ       0.0000
      XXZZ    -503.2370   XYZZ      -0.1303   YYZZ    -135.2120
      XZZZ       0.0000   YZZZ       0.0000   ZZZZ    -567.9979
 -----------------------------------------------------------------
Archival summary:
1\1\nid01047\OPT\ProcedureUnspecified\BasisUnspecified\286(1-,2)\TueSep623:37:272016TueSep623:37:272016\0\\#,OPT,ProcedureUnspecified,BasisUnspecified,\\-1,2\S\C,1,1.75834\H,2,1.08199,1,120.562\C,2,1.3854,1,110.887,3,-172.234,0\H,4,1.08741,2,122.679,1,177.728,0\C,4,1.41266,2,114.091,1,1.93664,0\H,6,1.08577,4,123.629,2,173.883,0\C,6,1.40601,4,115.203,2,-3.99943,0\C,8,1.43162,6,128.972,4,168.702,0\C,9,1.40601,8,128.972,6,80,0\H,10,1.08577,9,121.133,8,-9.23821,0\C,10,1.41266,9,115.203,8,168.702,0\H,12,1.08741,10,123.089,9,-179.771,0\C,12,1.3854,10,114.091,9,-3.99943,0\H,14,1.08199,12,128.012,10,-169.571,0\S,14,1.75834,12,110.887,10,1.93664,0\\\@

 Total job time:  170.27s(wall), 187.01s(cpu) 
 Tue Sep  6 23:37:27 2016

        *************************************************************
        *                                                           *
        *  Thank you very much for using Q-Chem.  Have a nice day.  *
        *                                                           *
        *************************************************************


0 sent ACK to 0 
now end server 0 ... 
