srun -N 1 --ntasks-per-node 16 --nodelist nid01047 /global/project/projectdirs/jcesr/qchem/qc44/cnl_qc441/dist/exe/qcprog.cori.exe .pt_charged_dft_-70.0.in.23906.qcin.1 /dev/shm/eg_qchem/qchem23906/
Process 1 of 16 is on nid01047 - thread support 0
Process 2 of 16 is on nid01047 - thread support 0
Process 3 of 16 is on nid01047 - thread support 0
Process 4 of 16 is on nid01047 - thread support 0
Process 5 of 16 is on nid01047 - thread support 0
Process 6 of 16 is on nid01047 - thread support 0
Process 0 of 16 is on nid01047 - thread support 0
Process 15 of 16 is on nid01047 - thread support 0
initial socket setup ...start
initial socket setup ...done 
now start server 0 ... 
nid01047 10.128.4
Q-Chem Developer Version! Running on 10.128.4.*
                  Welcome to Q-Chem
     A Quantum Leap Into The Future Of Chemistry


 Q-Chem 4.4, Q-Chem, Inc., Pleasanton, CA (2016)

 Y. Shao,  Z. Gan,  E. Epifanovsky,  A. T. B. Gilbert,  M. Wormit,  
 J. Kussmann,  A. W. Lange,  A. Behn,  J. Deng,  X. Feng,  D. Ghosh,  
 M. Goldey,  P. R. Horn,  L. D. Jacobson,  I. Kaliman,  F.Rob,  
 R. Z. Khaliullin,  T. Kus,  A. Landau,  J. Liu,  E. I. Proynov,  Y. M. Rhee,  
 R. M. Richard,  M. A. Rohrdanz,  R. P. Steele,  E. J. Sundstrom,  
 H. L. Woodcock III,  P. M. Zimmerman,  D. Zuev,  B. Albrecht,  E. Alguire,  
 B. Austin,  S. A. Baeppler,  G. J. O. Beran,  Y. A. Bernard,  E. Berquist,  
 K. Brandhorst,  K. B. Bravaya,  S. T. Brown,  D. Casanova,  C.-M. Chang,  
 Y. Chen,  S. H. Chien,  K. D. Closser,  M. P. Coons,  D. L. Crittenden,  
 S. Dasgupta,  M. Diedenhofen,  R. A. DiStasio Jr.,  H. Do,  A. D. Dutoi,  
 R. G. Edgar,  P.-T. Fang,  S. Fatehi,  Q. Feng,  L. Fusti-Molnar,  
 A. Ghysels,  A. Golubeva-Zadorozhnaya,  J. Gomes,  A. Gunina,  
 M. W. D. Hanson-Heine,  P. H. P. Harbach,  A. W. Hauser,  E. G. Hohenstein,  
 Z. C. Holden,  K. Hui,  T.-C. Jagau,  H. Ji,  B. Kaduk,  K. Khistyaev,  
 Jaehoon Kim,  Jihan Kim,  R. A. King,  P. Klunzinger,  D. Kosenkov,  
 T. Kowalczyk,  C. M. Krauter,  A. Kunitsa,  K. U. Lao,  A. Laurent,  
 K. V. Lawler,  D. Lefrancois,  S. Lehtola,  S. V. Levchenko,  C. Y. Lin,  
 Y.-S. Lin,  F. Liu,  E. Livshits,  R. C. Lochan,  A. Luenser,  P. Manohar,  
 S. F. Manzer,  S.-P. Mao,  Y. Mao,  N. Mardirossian,  A. V. Marenich,  
 L. A. Martinez-Martinez,  S. A. Maurer,  N. J. Mayhall,  J.-M. Mewes,  
 A. F. Morrison,  K. Nanda,  C. M. Oana,  R. Olivares-Amaya,  D. P. O'Neill,  
 J. A. Parkhill,  T. M. Perrine,  R. Peverati,  P. A. Pieniazek,  F. Plasser,  
 A. Prociuk,  D. R. Rehn,  E. Rosta,  N. J. Russ,  N. Sergueev,  
 S. M. Sharada,  S. Sharma,  D. W. Small,  A. Sodt,  T. Stauch,  T. Stein,  
 D. Stuck,  Y.-C. Su,  A. J. W. Thom,  T. Tsuchimochi,  L. Vogt,  O. Vydrov,  
 T. Wang,  M. A. Watson,  J. Wenzel,  A. White,  C. F. Williams,  
 V. Vanovschi,  S. Yeganeh,  S. R. Yost,  Z.-Q. You,  I. Y. Zhang,  X. Zhang,  
 Y. Zhao,  B. R. Brooks,  G. K. L. Chan,  D. M. Chipman,  C. J. Cramer,  
 W. A. Goddard III,  M. S. Gordon,  W. J. Hehre,  A. Klamt,  
 H. F. Schaefer III,  M. W. Schmidt,  C. D. Sherrill,  D. G. Truhlar,  
 A. Warshel,  X. Xu,  A. Aspuru-Guzik,  R. Baer,  A. T. Bell,  N. A. Besley,  
 J.-D. Chai,  A. Dreuw,  B. D. Dunietz,  T. R. Furlani,  S. R. Gwaltney,  
 C.-P. Hsu,  Y. Jung,  J. Kong,  D. S. Lambrecht,  W. Liang,  C. Ochsenfeld,  
 V. A. Rassolov,  L. V. Slipchenko,  J. E. Subotnik,  T. Van Voorhis,  
 J. M. Herbert,  A. I. Krylov,  P. M. W. Gill,  M. Head-Gordon

 Contributors to earlier versions of Q-Chem not listed above: 
 R. D. Adamson,  J. Baker,  E. F. C. Byrd,  A. K. Chakraborty,  C.-L. Cheng,  
 H. Dachsel,  R. J. Doerksen,  G. Hawkins,  A. Heyden,  S. Hirata,  
 G. Kedziora,  F. J. Keil,  C. Kelley,  P. P. Korambath,  W. Kurlancheek,  
 A. M. Lee,  M. S. Lee,  D. Liotard,  I. Lotan,  P. E. Maslen,  N. Nair,  
 D. Neuhauser,  R. Olson,  B. Peters,  J. Ritchie,  N. E. Schultz,  
 N. Shenvi,  A. C. Simmonett,  K. S. Thanthiriwatte,  Q. Wu,  W. Zhang

 Please cite Q-Chem as follows:
 Y. Shao et al., Mol. Phys. 113, 184-215 (2015)
 DOI: 10.1080/00268976.2014.952696

 Q-Chem 4.4.1 for Intel X86 EM64T Linux

 Parts of Q-Chem use Armadillo 5.200.1 (Boston Tea Smuggler).
 http://arma.sourceforge.net/

 Q-Chem begins on Tue Sep  6 23:42:33 2016  

Host: nid01047
0

     Scratch files written to /dev/shm/eg_qchem/qchem23906.0//
 Parallel job on  16  processors

Checking the input file for inconsistencies... 	...done.

--------------------------------------------------------------
User input:
--------------------------------------------------------------
$comment
<SCF Fix Strategy>{
    "current_method_id": 1, 
    "methods": [
        "increase_iter", 
        "rca_diis", 
        "gwh", 
        "gdm", 
        "rca", 
        "core+rca", 
        "fon"
    ], 
    "version": 2.0
}</SCF Fix Strategy>
$end


$molecule
 -1  2
 S           1.83794975       -1.27576249       -0.14871336
 C           3.23937819       -0.19806434       -0.14823333
 C           2.83626844        1.12431397       -0.14890172
 C           1.43724334        1.31134696       -0.14931220
 C           0.69606563        0.10654716       -0.14908151
 H           0.95807640        2.28459073       -0.14860036
 C          -0.69610330       -0.10652413       -0.14907621
 S          -1.52545649       -0.76627099       -1.59530814
 C          -1.65634042        0.11999574        0.86459061
 C          -3.10024389       -0.71125308       -0.79377658
 C          -2.97489274       -0.21877507        0.49188856
 H          -3.82686210       -0.10380386        1.15799161
 H           4.24016475       -0.60708034       -0.14954918
 H           3.54430111        1.94981573       -0.14910914
 H          -3.98798461       -1.04087113       -1.31544499
 H          -1.38737612        0.52020214        1.83634056
$end


$rem
         jobtype = opt
        exchange = b3lyp
           basis = 6-31++g**
  max_scf_cycles = 200
      mem_static = 100
       mem_total = 1500
   scf_algorithm = rca_diis
       scf_guess = sad
$end


$opt
CONSTRAINT
tors 4 5 7 9 -70.0
ENDCONSTRAINT
$end

--------------------------------------------------------------
 Atom   8: ( -1.6914812539, -0.7450309745,  0.9577404745)
         ->( -1.6914811862, -0.7450310075,  0.9577404492)
 Atom  10: ( -3.1939002660, -0.1293267112,  0.2583975405)
         ->( -3.1939002440, -0.1293265949,  0.2583977173)
 Atom  11: ( -2.9310130354,  0.6365423056, -0.8621011461)
         ->( -2.9310131056,  0.6365421904, -0.8621011306)
 Atom   9: ( -1.5621601945,  0.7510324005, -1.1867341981)
         ->( -1.5621602707,  0.7510324277, -1.1867342162)
 Atom   7: ( -0.7017598736,  0.0584507360, -0.3030323673)
         ->( -0.7017598868,  0.0584508743, -0.3030323545)
 Atom  16: ( -1.1876849736,  1.3145171632, -2.0347071657)
         ->( -1.1876851016,  1.3145172759, -2.0347071359)
 Atom  14: (  3.7191854998, -1.1102421514, -1.4427525620)
         ->(  3.7191853509, -1.1102424687, -1.4427525039)
 Atom  15: ( -4.1444479392, -0.3688273481,  0.7144327812)
         ->( -4.1444479181, -0.3688276163,  0.7144327360)
 ----------------------------------------------------------------
             Standard Nuclear Orientation (Angstroms)
    I     Atom           X                Y                Z
 ----------------------------------------------------------------
    1      S       1.6914811862     0.7450310075     0.9577404492
    2      C       3.1939002440     0.1293265949     0.2583977173
    3      C       2.9310131056    -0.6365421904    -0.8621011306
    4      C       1.5621602707    -0.7510324277    -1.1867342162
    5      C       0.7017598868    -0.0584508743    -0.3030323545
    6      H       1.1876851016    -1.3145172759    -2.0347071359
    7      C      -0.7017598868     0.0584508743    -0.3030323545
    8      S      -1.6914811862    -0.7450310075     0.9577404492
    9      C      -1.5621602707     0.7510324277    -1.1867342162
   10      C      -3.1939002440    -0.1293265949     0.2583977173
   11      C      -2.9310131056     0.6365421904    -0.8621011306
   12      H      -3.7191853509     1.1102424687    -1.4427525039
   13      H       4.1444479181     0.3688276163     0.7144327360
   14      H       3.7191853509    -1.1102424687    -1.4427525039
   15      H      -4.1444479181    -0.3688276163     0.7144327360
   16      H      -1.1876851016     1.3145172759    -2.0347071359
 ----------------------------------------------------------------
 Molecular Point Group                 C2    NOp =  2
 Largest Abelian Subgroup              C2    NOp =  2
 Nuclear Repulsion Energy =   624.1555362605 hartrees
 There are       44 alpha and       43 beta electrons
 Requested basis set is 6-31++G(d,p)
 There are 76 shells and 234 basis functions

 Total QAlloc Memory Limit   1500 MB
 Mega-Array Size        98 MB
 MEM_STATIC part       100 MB
 A cutoff of  1.0D-12 yielded   2521 shell pairs
 There are     24893 function pairs
 
 -------------------------------------------------------
 OpenMP Integral Computing Module                       
 Release: version 1.0, May 2013, Q-Chem Inc. Pittsburgh 
 -------------------------------------------------------
 Integral Job Info:
 Integral job number is                      11
 Integral operator is                         1
 short-range coefficients                     0
 long-range coefficients              100000000
 Omega coefficients                           0
 if combine SR and LR in K                    0
 Integral screening is                        0
 Integral computing path is                   2
 max size of driver memory is            800000
 size of driver memory is                593474
 size of scratch memory is             15166112
 max col of scratch BK array               1296
 max len of scratch array in speh3          155
 max len of scratch index in speh4           18
 max int batch size is                      520
 min int batch size is                       52
 fixed nKL is                                52
 max L of basis functions is                  2
 order of int derivative is                   0
 number of shells is                         76
 number of basis is                         234
 number of cartesian basis is               234
 number of contracted shell pairs          2521
 number of primitive shell pairs           8190
 maxK2 (contraction) of shell pair           36
 max number of K2 of shell pair               1
 max number of CS2 of shell pair            260
 max number of PS2 of shell pair           1524
 mem total for path MDJ                   51992
 -------------------------------------------------------
 Smallest overlap matrix eigenvalue = 9.49E-07
 Linear dependence detected in AO basis
 Number of orthogonalized atomic orbitals = 233
 Maximum deviation from orthogonality = 4.113E-11

 Scale SEOQF with 1.000000e-01/1.000000e-01/1.000000e-01

 Standard Electronic Orientation quadrupole field applied
 Nucleus-field energy     =     0.0000000099 hartrees
 Guess from superposition of atomic densities
 Warning:  Energy on first SCF cycle will be non-variational
 An unrestricted hybrid HF-DFT SCF calculation will be
 performed using Relaxed Constraint Minimization + Pulay DIIS
 Exchange:     0.2000 Hartree-Fock + 0.0800 Slater + 0.7200 B88
 Correlation:  0.1900 VWN1RPA + 0.8100 LYP
 Using SG-1 standard quadrature grid
 SCF converges when DIIS error is below 1.0E-08
 Inaccurate integrated density:
   Number of electrons =    87
   Numerical integral  =    85.999720959270
   Relative error      =    -1.1497460238 %
 Inaccurate integrated density:
   Number of electrons =    87
   Numerical integral  =    85.999720959270
   Relative error      =    -1.1497460238 %
 ---------------------------------------
  Cycle       Energy         DIIS Error
 ---------------------------------------
    1   -1106.9734643072      4.28E-02
 Inaccurate integrated density:
   Number of electrons =    87
   Numerical integral  =    87.022297335844
   Relative error      =     0.0256291217 %
 Inaccurate integrated density:
   Number of electrons =    87
   Numerical integral  =    87.022297335868
   Relative error      =     0.0256291217 %
    2   -1174.2564771917      1.75E-01
 Inaccurate integrated density:
   Number of electrons =    87
   Numerical integral  =    87.017490594720
   Relative error      =     0.0201041319 %
 Inaccurate integrated density:
   Number of electrons =    87
   Numerical integral  =    87.022074089066
   Relative error      =     0.0253725162 %
Recomputing EXC -1171.692195 -1174.740449 -1174.256477 
 Inaccurate integrated density:
   Number of electrons =    87
   Numerical integral  =    87.022286448886
   Relative error      =     0.0256166079 %
Recomputing EXC -1174.132507 -1174.280041 -1174.256477 
 Inaccurate integrated density:
   Number of electrons =    87
   Numerical integral  =    87.022296803676
   Relative error      =     0.0256285100 %
Recomputing EXC -1174.250420 -1174.257629 -1174.256477 
    3   -1174.2504200906      1.75E-01
 Inaccurate integrated density:
   Number of electrons =    87
   Numerical integral  =    87.017490133176
   Relative error      =     0.0201036014 %
 Inaccurate integrated density:
   Number of electrons =    87
   Numerical integral  =    87.022073597022
   Relative error      =     0.0253719506 %
Recomputing EXC -1171.686583 -1174.734205 -1174.250420 
 Inaccurate integrated density:
   Number of electrons =    87
   Numerical integral  =    87.022285920418
   Relative error      =     0.0256160005 %
Recomputing EXC -1174.126475 -1174.273971 -1174.250420 
 Inaccurate integrated density:
   Number of electrons =    87
   Numerical integral  =    87.022296271840
   Relative error      =     0.0256278987 %
Recomputing EXC -1174.244349 -1174.251571 -1174.250420 
    4   -1174.2443492190      1.75E-01
 Inaccurate integrated density:
   Number of electrons =    87
   Numerical integral  =    87.017489803848
   Relative error      =     0.0201032228 %
 Inaccurate integrated density:
   Number of electrons =    87
   Numerical integral  =    87.022073114369
   Relative error      =     0.0253713958 %
Recomputing EXC -1171.680940 -1174.727942 -1174.244349 
 Inaccurate integrated density:
   Number of electrons =    87
   Numerical integral  =    87.022285392925
   Relative error      =     0.0256153942 %
Recomputing EXC -1174.120430 -1174.267886 -1174.244349 
 Inaccurate integrated density:
   Number of electrons =    87
   Numerical integral  =    87.022295740373
   Relative error      =     0.0256272878 %
Recomputing EXC -1174.238265 -1174.245499 -1174.244349 
    5   -1174.2382646885      1.75E-01
 Inaccurate integrated density:
   Number of electrons =    87
   Numerical integral  =    87.017489606707
   Relative error      =     0.0201029962 %
 Inaccurate integrated density:
   Number of electrons =    87
   Numerical integral  =    87.022072640983
   Relative error      =     0.0253708517 %
Recomputing EXC -1171.675266 -1174.721661 -1174.238265 
 Inaccurate integrated density:
   Number of electrons =    87
   Numerical integral  =    87.022284866381
   Relative error      =     0.0256147889 %
Recomputing EXC -1174.114372 -1174.261788 -1174.238265 
 Inaccurate integrated density:
   Number of electrons =    87
   Numerical integral  =    87.022295209313
   Relative error      =     0.0256266774 %
Recomputing EXC -1174.232167 -1174.239413 -1174.238265 
    6   -1174.2321666498      1.75E-01
 Inaccurate integrated density:
   Number of electrons =    87
   Numerical integral  =    87.017489540933
   Relative error      =     0.0201029206 %
 Inaccurate integrated density:
   Number of electrons =    87
   Numerical integral  =    87.022072176953
   Relative error      =     0.0253703183 %
Recomputing EXC -1171.669562 -1174.715362 -1174.232167 
 Inaccurate integrated density:
   Number of electrons =    87
   Numerical integral  =    87.022284340788
   Relative error      =     0.0256141848 %
Recomputing EXC -1174.108302 -1174.255675 -1174.232167 
 Inaccurate integrated density:
   Number of electrons =    87
   Numerical integral  =    87.022294678652
   Relative error      =     0.0256260674 %
Recomputing EXC -1174.226055 -1174.233314 -1174.232167 
    7   -1174.2260552049      1.75E-01
 Inaccurate integrated density:
   Number of electrons =    87
   Numerical integral  =    87.017489605821
   Relative error      =     0.0201029952 %
 Inaccurate integrated density:
   Number of electrons =    87
   Numerical integral  =    87.022071722045
   Relative error      =     0.0253697955 %
Recomputing EXC -1171.663829 -1174.709045 -1174.226055 
 Inaccurate integrated density:
   Number of electrons =    87
   Numerical integral  =    87.022283816175
   Relative error      =     0.0256135818 %
Recomputing EXC -1174.102218 -1174.249549 -1174.226055 
 Inaccurate integrated density:
   Number of electrons =    87
   Numerical integral  =    87.022294148482
   Relative error      =     0.0256254580 %
Recomputing EXC -1174.219931 -1174.227202 -1174.226055 
    8   -1174.2199305130      1.75E-01
 Inaccurate integrated density:
   Number of electrons =    87
   Numerical integral  =    87.017489801577
   Relative error      =     0.0201032202 %
 Inaccurate integrated density:
   Number of electrons =    87
   Numerical integral  =    87.022071276535
   Relative error      =     0.0253692834 %
Recomputing EXC -1171.658066 -1174.702709 -1174.219931 
 Inaccurate integrated density:
   Number of electrons =    87
   Numerical integral  =    87.022283292589
   Relative error      =     0.0256129800 %
Recomputing EXC -1174.096123 -1174.243408 -1174.219931 
 Inaccurate integrated density:
   Number of electrons =    87
   Numerical integral  =    87.022293618775
   Relative error      =     0.0256248492 %
Recomputing EXC -1174.213793 -1174.221076 -1174.219931 
    9   -1174.2137926861      1.75E-01
 Inaccurate integrated density:
   Number of electrons =    87
   Numerical integral  =    87.017490126985
   Relative error      =     0.0201035942 %
 Inaccurate integrated density:
   Number of electrons =    87
   Numerical integral  =    87.022070840224
   Relative error      =     0.0253687819 %
Recomputing EXC -1171.652273 -1174.696357 -1174.213793 
 Inaccurate integrated density:
   Number of electrons =    87
   Numerical integral  =    87.022282770028
   Relative error      =     0.0256123793 %
Recomputing EXC -1174.090014 -1174.237254 -1174.213793 
 Inaccurate integrated density:
   Number of electrons =    87
   Numerical integral  =    87.022293089637
   Relative error      =     0.0256242410 %
Recomputing EXC -1174.207642 -1174.214937 -1174.213793 
   10   -1174.2076418442      1.75E-01
 Inaccurate integrated density:
   Number of electrons =    87
   Numerical integral  =    87.017490582003
   Relative error      =     0.0201041172 %
 Inaccurate integrated density:
   Number of electrons =    87
   Numerical integral  =    87.022070413100
   Relative error      =     0.0253682909 %
Recomputing EXC -1171.646451 -1174.689986 -1174.207642 
 Inaccurate integrated density:
   Number of electrons =    87
   Numerical integral  =    87.022282248628
   Relative error      =     0.0256117800 %
Recomputing EXC -1174.083894 -1174.231087 -1174.207642 
 Inaccurate integrated density:
   Number of electrons =    87
   Numerical integral  =    87.022292561014
   Relative error      =     0.0256236333 %
Recomputing EXC -1174.201478 -1174.208785 -1174.207642 
   11   -1174.2014781213      1.75E-01
 Inaccurate integrated density:
   Number of electrons =    87
   Numerical integral  =    87.017491165978
   Relative error      =     0.0201047885 %
 Inaccurate integrated density:
   Number of electrons =    87
   Numerical integral  =    87.022069995107
   Relative error      =     0.0253678105 %
Recomputing EXC -1171.640600 -1174.683599 -1174.201478 
 Inaccurate integrated density:
   Number of electrons =    87
   Numerical integral  =    87.022281728243
   Relative error      =     0.0256111819 %
Recomputing EXC -1174.077761 -1174.224906 -1174.201478 
 Inaccurate integrated density:
   Number of electrons =    87
   Numerical integral  =    87.022292033001
   Relative error      =     0.0256230264 %
Recomputing EXC -1174.195302 -1174.202620 -1174.201478 
   12   -1174.1953016535      1.75E-01
 Inaccurate integrated density:
   Number of electrons =    87
   Numerical integral  =    87.017491878712
   Relative error      =     0.0201056077 %
 Inaccurate integrated density:
   Number of electrons =    87
   Numerical integral  =    87.022069586304
   Relative error      =     0.0253673406 %
Recomputing EXC -1171.634719 -1174.677195 -1174.195302 
 Inaccurate integrated density:
   Number of electrons =    87
   Numerical integral  =    87.022281209022
   Relative error      =     0.0256105851 %
Recomputing EXC -1174.071617 -1174.218712 -1174.195302 
 Inaccurate integrated density:
   Number of electrons =    87
   Numerical integral  =    87.022291505648
   Relative error      =     0.0256224203 %
Recomputing EXC -1174.189113 -1174.196442 -1174.195302 
   13   -1174.1891125523      1.75E-01
 Inaccurate integrated density:
   Number of electrons =    87
   Numerical integral  =    87.017492720152
   Relative error      =     0.0201065749 %
 Inaccurate integrated density:
   Number of electrons =    87
   Numerical integral  =    87.022069186752
   Relative error      =     0.0253668813 %
Recomputing EXC -1171.628810 -1174.670774 -1174.189113 
 Inaccurate integrated density:
   Number of electrons =    87
   Numerical integral  =    87.022280690983
   Relative error      =     0.0256099896 %
Recomputing EXC -1174.065460 -1174.212505 -1174.189113 
 Inaccurate integrated density:
   Number of electrons =    87
   Numerical integral  =    87.022290978910
   Relative error      =     0.0256218148 %
Recomputing EXC -1174.182911 -1174.190252 -1174.189113 
   14   -1174.1829109366      1.75E-01
 Inaccurate integrated density:
   Number of electrons =    87
   Numerical integral  =    87.017493689118
   Relative error      =     0.0201076886 %
 Inaccurate integrated density:
   Number of electrons =    87
   Numerical integral  =    87.022068796275
   Relative error      =     0.0253664325 %
Recomputing EXC -1171.622873 -1174.664336 -1174.182911 
 Inaccurate integrated density:
   Number of electrons =    87
   Numerical integral  =    87.022280174131
   Relative error      =     0.0256093956 %
Recomputing EXC -1174.059291 -1174.206285 -1174.182911 
 Inaccurate integrated density:
   Number of electrons =    87
   Numerical integral  =    87.022290452883
   Relative error      =     0.0256212102 %
Recomputing EXC -1174.176697 -1174.184049 -1174.182911 
   15   -1174.1766969407      1.75E-01
 Inaccurate integrated density:
   Number of electrons =    87
   Numerical integral  =    87.017494786323
   Relative error      =     0.0201089498 %
 Inaccurate integrated density:
   Number of electrons =    87
   Numerical integral  =    87.022068414784
   Relative error      =     0.0253659940 %
Recomputing EXC -1171.616907 -1174.657882 -1174.176697 
 Inaccurate integrated density:
   Number of electrons =    87
   Numerical integral  =    87.022279658528
   Relative error      =     0.0256088029 %
Recomputing EXC -1174.053111 -1174.200052 -1174.176697 
 Inaccurate integrated density:
   Number of electrons =    87
   Numerical integral  =    87.022289927596
   Relative error      =     0.0256206064 %
Recomputing EXC -1174.170471 -1174.177833 -1174.176697 
   16   -1174.1704706763      1.75E-01
 Inaccurate integrated density:
   Number of electrons =    87
   Numerical integral  =    87.017496010060
   Relative error      =     0.0201103564 %
 Inaccurate integrated density:
   Number of electrons =    87
   Numerical integral  =    87.022068042385
   Relative error      =     0.0253655660 %
Recomputing EXC -1171.610913 -1174.651411 -1174.170471 
 Inaccurate integrated density:
   Number of electrons =    87
   Numerical integral  =    87.022279144161
   Relative error      =     0.0256082117 %
Recomputing EXC -1174.046919 -1174.193806 -1174.170471 
 Inaccurate integrated density:
   Number of electrons =    87
   Numerical integral  =    87.022289403095
   Relative error      =     0.0256200036 %
Recomputing EXC -1174.164232 -1174.171606 -1174.170471 
   17   -1174.1642322681      1.75E-01
 Inaccurate integrated density:
   Number of electrons =    87
   Numerical integral  =    87.017497361342
   Relative error      =     0.0201119096 %
 Inaccurate integrated density:
   Number of electrons =    87
   Numerical integral  =    87.022067679152
   Relative error      =     0.0253651485 %
Recomputing EXC -1171.604892 -1174.644925 -1174.164232 
 Inaccurate integrated density:
   Number of electrons =    87
   Numerical integral  =    87.022278631070
   Relative error      =     0.0256076219 %
Recomputing EXC -1174.040716 -1174.187548 -1174.164232 
 Inaccurate integrated density:
   Number of electrons =    87
   Numerical integral  =    87.022288879322
   Relative error      =     0.0256194015 %
Recomputing EXC -1174.157982 -1174.165366 -1174.164232 
   18   -1174.1579818292      1.75E-01
 Inaccurate integrated density:
   Number of electrons =    87
   Numerical integral  =    87.017498838777
   Relative error      =     0.0201136078 %
 Inaccurate integrated density:
   Number of electrons =    87
   Numerical integral  =    87.022067324775
   Relative error      =     0.0253647411 %
Recomputing EXC -1171.598842 -1174.638423 -1174.157982 
 Inaccurate integrated density:
   Number of electrons =    87
   Numerical integral  =    87.022278119289
   Relative error      =     0.0256070337 %
Recomputing EXC -1174.034501 -1174.181278 -1174.157982 
 Inaccurate integrated density:
   Number of electrons =    87
   Numerical integral  =    87.022288356396
   Relative error      =     0.0256188005 %
Recomputing EXC -1174.151719 -1174.159114 -1174.157982 
   19   -1174.1517194798      1.75E-01
 Inaccurate integrated density:
   Number of electrons =    87
   Numerical integral  =    87.017500442829
   Relative error      =     0.0201154515 %
 Inaccurate integrated density:
   Number of electrons =    87
   Numerical integral  =    87.022066979511
   Relative error      =     0.0253643443 %
Recomputing EXC -1171.592765 -1174.631905 -1174.151719 
 Inaccurate integrated density:
   Number of electrons =    87
   Numerical integral  =    87.022277608793
   Relative error      =     0.0256064469 %
Recomputing EXC -1174.028275 -1174.174995 -1174.151719 
 Inaccurate integrated density:
   Number of electrons =    87
   Numerical integral  =    87.022287834325
   Relative error      =     0.0256182004 %
Recomputing EXC -1174.145445 -1174.152850 -1174.151719 
   20   -1174.1454453369      1.75E-01
 Inaccurate integrated density:
   Number of electrons =    87
   Numerical integral  =    87.017502172483
   Relative error      =     0.0201174396 %
 Inaccurate integrated density:
   Number of electrons =    87
   Numerical integral  =    87.022066643228
   Relative error      =     0.0253639577 %
Recomputing EXC -1171.586660 -1174.625372 -1174.145445 
 Inaccurate integrated density:
   Number of electrons =    87
   Numerical integral  =    87.022277099639
   Relative error      =     0.0256058617 %
Recomputing EXC -1174.022037 -1174.168699 -1174.145445 
 Inaccurate integrated density:
   Number of electrons =    87
   Numerical integral  =    87.022287313104
   Relative error      =     0.0256176013 %
Recomputing EXC -1174.139160 -1174.146574 -1174.145445 
   21   -1174.1391595248      1.75E-01
 Inaccurate integrated density:
   Number of electrons =    87
   Numerical integral  =    87.017504028129
   Relative error      =     0.0201195726 %
 Inaccurate integrated density:
   Number of electrons =    87
   Numerical integral  =    87.022066315850
   Relative error      =     0.0253635814 %
Recomputing EXC -1171.580529 -1174.618823 -1174.139160 
 Inaccurate integrated density:
   Number of electrons =    87
   Numerical integral  =    87.022276591894
   Relative error      =     0.0256052780 %
Recomputing EXC -1174.015789 -1174.162392 -1174.139160 
 Inaccurate integrated density:
   Number of electrons =    87
   Numerical integral  =    87.022286792775
   Relative error      =     0.0256170032 %
Recomputing EXC -1174.132862 -1174.140287 -1174.139160 
   22   -1174.1328621474      1.75E-01
 Inaccurate integrated density:
   Number of electrons =    87
   Numerical integral  =    87.017506009160
   Relative error      =     0.0201218496 %
 Inaccurate integrated density:
   Number of electrons =    87
   Numerical integral  =    87.022065997438
   Relative error      =     0.0253632154 %
Recomputing EXC -1171.574370 -1174.612259 -1174.132862 
 Inaccurate integrated density:
   Number of electrons =    87
   Numerical integral  =    87.022276085579
   Relative error      =     0.0256046961 %
Recomputing EXC -1174.009529 -1174.156073 -1174.132862 
 Inaccurate integrated density:
   Number of electrons =    87
   Numerical integral  =    87.022286273356
   Relative error      =     0.0256164062 %
Recomputing EXC -1174.126553 -1174.133988 -1174.132862 
   23   -1174.1265533255      1.75E-01
 Inaccurate integrated density:
   Number of electrons =    87
   Numerical integral  =    87.017508114996
   Relative error      =     0.0201242701 %
 Inaccurate integrated density:
   Number of electrons =    87
   Numerical integral  =    87.022065688016
   Relative error      =     0.0253628598 %
Recomputing EXC -1171.568185 -1174.605680 -1174.126553 
 Inaccurate integrated density:
   Number of electrons =    87
   Numerical integral  =    87.022275580562
   Relative error      =     0.0256041156 %
Recomputing EXC -1174.003259 -1174.149742 -1174.126553 
 Inaccurate integrated density:
   Number of electrons =    87
   Numerical integral  =    87.022285754933
   Relative error      =     0.0256158103 %
Recomputing EXC -1174.120233 -1174.127678 -1174.126553 
   24   -1174.1202331790      1.75E-01
 Inaccurate integrated density:
   Number of electrons =    87
   Numerical integral  =    87.017510345959
   Relative error      =     0.0201268344 %
 Inaccurate integrated density:
   Number of electrons =    87
   Numerical integral  =    87.022065387507
   Relative error      =     0.0253625144 %
Recomputing EXC -1171.561973 -1174.599086 -1174.120233 
 Inaccurate integrated density:
   Number of electrons =    87
   Numerical integral  =    87.022275077152
   Relative error      =     0.0256035370 %
Recomputing EXC -1173.996978 -1174.143399 -1174.120233 
 Inaccurate integrated density:
   Number of electrons =    87
   Numerical integral  =    87.022285237509
   Relative error      =     0.0256152155 %
Recomputing EXC -1174.113902 -1174.121356 -1174.120233 
   25   -1174.1139018169      1.75E-01
 Inaccurate integrated density:
   Number of electrons =    87
   Numerical integral  =    87.017512701289
   Relative error      =     0.0201295417 %
 Inaccurate integrated density:
   Number of electrons =    87
   Numerical integral  =    87.022065095945
   Relative error      =     0.0253621792 %
Recomputing EXC -1171.555734 -1174.592478 -1174.113902 
 Inaccurate integrated density:
   Number of electrons =    87
   Numerical integral  =    87.022274575127
   Relative error      =     0.0256029599 %
Recomputing EXC -1173.990686 -1174.137044 -1174.113902 
 Inaccurate integrated density:
   Number of electrons =    87
   Numerical integral  =    87.022284721082
   Relative error      =     0.0256146219 %
Recomputing EXC -1174.107559 -1174.115023 -1174.113902 
   26   -1174.1075593447      1.75E-01
 Inaccurate integrated density:
   Number of electrons =    87
   Numerical integral  =    87.017515180966
   Relative error      =     0.0201323919 %
 Inaccurate integrated density:
   Number of electrons =    87
   Numerical integral  =    87.022064813202
   Relative error      =     0.0253618543 %
Recomputing EXC -1171.549469 -1174.585855 -1174.107559 
 Inaccurate integrated density:
   Number of electrons =    87
   Numerical integral  =    87.022274074592
   Relative error      =     0.0256023846 %
Recomputing EXC -1173.984384 -1174.130678 -1174.107559 
 Inaccurate integrated density:
   Number of electrons =    87
   Numerical integral  =    87.022284205727
   Relative error      =     0.0256140296 %
Recomputing EXC -1174.101206 -1174.108678 -1174.107559 
   27   -1174.1012058943      1.74E-01
 Inaccurate integrated density:
   Number of electrons =    87
   Numerical integral  =    87.017517784835
   Relative error      =     0.0201353849 %
 Inaccurate integrated density:
   Number of electrons =    87
   Numerical integral  =    87.022064539316
   Relative error      =     0.0253615394 %
Recomputing EXC -1171.543178 -1174.579218 -1174.101206 
 Inaccurate integrated density:
   Number of electrons =    87
   Numerical integral  =    87.022273575592
   Relative error      =     0.0256018110 %
Recomputing EXC -1173.978071 -1174.124301 -1174.101206 
 Inaccurate integrated density:
   Number of electrons =    87
   Numerical integral  =    87.022283691409
   Relative error      =     0.0256134384 %
Recomputing EXC -1174.094842 -1174.102323 -1174.101206 
   28   -1174.0948415588      1.74E-01
 Inaccurate integrated density:
   Number of electrons =    87
   Numerical integral  =    87.017520512482
   Relative error      =     0.0201385201 %
 Inaccurate integrated density:
   Number of electrons =    87
   Numerical integral  =    87.022064274242
   Relative error      =     0.0253612348 %
Recomputing EXC -1171.536862 -1174.572567 -1174.094842 
 Inaccurate integrated density:
   Number of electrons =    87
   Numerical integral  =    87.022273078161
   Relative error      =     0.0256012393 %
Recomputing EXC -1173.971748 -1174.117912 -1174.094842 
 Inaccurate integrated density:
   Number of electrons =    87
   Numerical integral  =    87.022283178236
   Relative error      =     0.0256128485 %
Recomputing EXC -1174.088466 -1174.095957 -1174.094842 
   29   -1174.0884664573      1.74E-01
 Inaccurate integrated density:
   Number of electrons =    87
   Numerical integral  =    87.017523363539
   Relative error      =     0.0201417972 %
 Inaccurate integrated density:
   Number of electrons =    87
   Numerical integral  =    87.022064017992
   Relative error      =     0.0253609402 %
Recomputing EXC -1171.530519 -1174.565902 -1174.088466 
 Inaccurate integrated density:
   Number of electrons =    87
   Numerical integral  =    87.022272582317
   Relative error      =     0.0256006693 %
Recomputing EXC -1173.965415 -1174.111512 -1174.088466 
 Inaccurate integrated density:
   Number of electrons =    87
   Numerical integral  =    87.022282666178
   Relative error      =     0.0256122600 %
Recomputing EXC -1174.082081 -1174.089580 -1174.088466 
   30   -1174.0820806975      1.74E-01
 Inaccurate integrated density:
   Number of electrons =    87
   Numerical integral  =    87.017526337944
   Relative error      =     0.0201452160 %
 Inaccurate integrated density:
   Number of electrons =    87
   Numerical integral  =    87.022063770563
   Relative error      =     0.0253606558 %
Recomputing EXC -1171.524151 -1174.559222 -1174.082081 
 Inaccurate integrated density:
   Number of electrons =    87
   Numerical integral  =    87.022272088020
   Relative error      =     0.0256001012 %
Recomputing EXC -1173.959071 -1174.105102 -1174.082081 
 Inaccurate integrated density:
   Number of electrons =    87
   Numerical integral  =    87.022282155284
   Relative error      =     0.0256116727 %
Recomputing EXC -1174.075684 -1174.083193 -1174.082081 
   31   -1174.0756843841      1.74E-01
 Inaccurate integrated density:
   Number of electrons =    87
   Numerical integral  =    87.017529435425
   Relative error      =     0.0201487764 %
 Inaccurate integrated density:
   Number of electrons =    87
   Numerical integral  =    87.022063531819
   Relative error      =     0.0253603814 %
Recomputing EXC -1171.517758 -1174.552530 -1174.075684 
 Inaccurate integrated density:
   Number of electrons =    87
   Numerical integral  =    87.022271595355
   Relative error      =     0.0255995349 %
Recomputing EXC -1173.952718 -1174.098680 -1174.075684 
 Inaccurate integrated density:
   Number of electrons =    87
   Numerical integral  =    87.022281645526
   Relative error      =     0.0256110868 %
Recomputing EXC -1174.069278 -1174.076794 -1174.075684 
   32   -1174.0692776197      1.74E-01
 Inaccurate integrated density:
   Number of electrons =    87
   Numerical integral  =    87.017532656163
   Relative error      =     0.0201524783 %
 Inaccurate integrated density:
   Number of electrons =    87
   Numerical integral  =    87.022063301868
   Relative error      =     0.0253601171 %
Recomputing EXC -1171.511340 -1174.545824 -1174.069278 
 Inaccurate integrated density:
   Number of electrons =    87
   Numerical integral  =    87.022271104350
   Relative error      =     0.0255989705 %
Recomputing EXC -1173.946354 -1174.092248 -1174.069278 
 Inaccurate integrated density:
   Number of electrons =    87
   Numerical integral  =    87.022281137003
   Relative error      =     0.0256105023 %
Recomputing EXC -1174.062861 -1174.070386 -1174.069278 
   33   -1174.0628605233      1.74E-01
 Inaccurate integrated density:
   Number of electrons =    87
   Numerical integral  =    87.017535998885
   Relative error      =     0.0201563206 %
 Inaccurate integrated density:
   Number of electrons =    87
   Numerical integral  =    87.022063080505
   Relative error      =     0.0253598626 %
Recomputing EXC -1171.504897 -1174.539105 -1174.062861 
 Inaccurate integrated density:
   Number of electrons =    87
   Numerical integral  =    87.022270614906
   Relative error      =     0.0255984079 %
Recomputing EXC -1173.939980 -1174.085804 -1174.062861 
 Inaccurate integrated density:
   Number of electrons =    87
   Numerical integral  =    87.022280629666
   Relative error      =     0.0256099192 %
Recomputing EXC -1174.056433 -1174.063967 -1174.062861 
   34   -1174.0564331987      1.74E-01
 Inaccurate integrated density:
   Number of electrons =    87
   Numerical integral  =    87.017539464472
   Relative error      =     0.0201603040 %
 Inaccurate integrated density:
   Number of electrons =    87
   Numerical integral  =    87.022062867741
   Relative error      =     0.0253596181 %
Recomputing EXC -1171.498429 -1174.532372 -1174.056433 
 Inaccurate integrated density:
   Number of electrons =    87
   Numerical integral  =    87.022270127142
   Relative error      =     0.0255978473 %
Recomputing EXC -1173.933597 -1174.079351 -1174.056433 
 Inaccurate integrated density:
   Number of electrons =    87
   Numerical integral  =    87.022280123647
   Relative error      =     0.0256093375 %
Recomputing EXC -1174.049996 -1174.057537 -1174.056433 
   35   -1174.0499957434      1.74E-01
 Inaccurate integrated density:
   Number of electrons =    87
   Numerical integral  =    87.017543052165
   Relative error      =     0.0201644278 %
 Inaccurate integrated density:
   Number of electrons =    87
   Numerical integral  =    87.022062663752
   Relative error      =     0.0253593836 %
Recomputing EXC -1171.491937 -1174.525627 -1174.049996 
 Inaccurate integrated density:
   Number of electrons =    87
   Numerical integral  =    87.022269641156
   Relative error      =     0.0255972887 %
Recomputing EXC -1173.927204 -1174.072887 -1174.049996 
 Inaccurate integrated density:
   Number of electrons =    87
   Numerical integral  =    87.022279618883
   Relative error      =     0.0256087573 %
Recomputing EXC -1174.043548 -1174.051098 -1174.049996 
   36   -1174.0435482562      1.74E-01
 Inaccurate integrated density:
   Number of electrons =    87
   Numerical integral  =    87.017546762022
   Relative error      =     0.0201686920 %
 Inaccurate integrated density:
   Number of electrons =    87
   Numerical integral  =    87.022062468446
   Relative error      =     0.0253591591 %
Recomputing EXC -1171.485420 -1174.518869 -1174.043548 
 Inaccurate integrated density:
   Number of electrons =    87
   Numerical integral  =    87.022269156860
   Relative error      =     0.0255967320 %
Recomputing EXC -1173.920802 -1174.066412 -1174.043548 
 Inaccurate integrated density:
   Number of electrons =    87
   Numerical integral  =    87.022279115408
   Relative error      =     0.0256081786 %
Recomputing EXC -1174.037091 -1174.044649 -1174.043548 
   37   -1174.0370908526      1.74E-01
 Inaccurate integrated density:
   Number of electrons =    87
   Numerical integral  =    87.017550593704
   Relative error      =     0.0201730962 %
 Inaccurate integrated density:
   Number of electrons =    87
   Numerical integral  =    87.022062281692
   Relative error      =     0.0253589445 %
Recomputing EXC -1171.478879 -1174.512098 -1174.037091 
 Inaccurate integrated density:
   Number of electrons =    87
   Numerical integral  =    87.022268674263
   Relative error      =     0.0255961773 %
Recomputing EXC -1173.914390 -1174.059927 -1174.037091 
 Inaccurate integrated density:
   Number of electrons =    87
   Numerical integral  =    87.022278613306
   Relative error      =     0.0256076015 %
Recomputing EXC -1174.030624 -1174.038189 -1174.037091 
   38   -1174.0306236177      1.74E-01
 Inaccurate integrated density:
   Number of electrons =    87
   Numerical integral  =    87.017554546801
   Relative error      =     0.0201776400 %
 Inaccurate integrated density:
   Number of electrons =    87
   Numerical integral  =    87.022062103557
   Relative error      =     0.0253587397 %
Recomputing EXC -1171.472315 -1174.505315 -1174.030624 
 Inaccurate integrated density:
   Number of electrons =    87
   Numerical integral  =    87.022268193426
   Relative error      =     0.0255956246 %
Recomputing EXC -1173.907969 -1174.053432 -1174.030624 
 Inaccurate integrated density:
   Number of electrons =    87
   Numerical integral  =    87.022278112489
   Relative error      =     0.0256070258 %
Recomputing EXC -1174.024147 -1174.031720 -1174.030624 
   39   -1174.0241466846      1.74E-01
 Inaccurate integrated density:
   Number of electrons =    87
   Numerical integral  =    87.017558621625
   Relative error      =     0.0201823237 %
 Inaccurate integrated density:
   Number of electrons =    87
   Numerical integral  =    87.022061933956
   Relative error      =     0.0253585448 %
Recomputing EXC -1171.465726 -1174.498519 -1174.024147 
 Inaccurate integrated density:
   Number of electrons =    87
   Numerical integral  =    87.022267714336
   Relative error      =     0.0255950739 %
Recomputing EXC -1173.901538 -1174.046928 -1174.024147 
 Inaccurate integrated density:
   Number of electrons =    87
   Numerical integral  =    87.022277613068
   Relative error      =     0.0256064518 %
Recomputing EXC -1174.017660 -1174.025241 -1174.024147 
   40   -1174.0176601160      1.74E-01
 Inaccurate integrated density:
   Number of electrons =    87
   Numerical integral  =    87.017562817849
   Relative error      =     0.0201871470 %
 Inaccurate integrated density:
   Number of electrons =    87
   Numerical integral  =    87.022061772868
   Relative error      =     0.0253583596 %
Recomputing EXC -1171.459114 -1174.491711 -1174.017660 
 Inaccurate integrated density:
   Number of electrons =    87
   Numerical integral  =    87.022267237071
   Relative error      =     0.0255945254 %
Recomputing EXC -1173.895098 -1174.040413 -1174.017660 
 Inaccurate integrated density:
   Number of electrons =    87
   Numerical integral  =    87.022277115038
   Relative error      =     0.0256058794 %
Recomputing EXC -1174.011164 -1174.018752 -1174.017660 
   41   -1174.0111640294      1.74E-01
 Inaccurate integrated density:
   Number of electrons =    87
   Numerical integral  =    87.017567135144
   Relative error      =     0.0201921094 %
 Inaccurate integrated density:
   Number of electrons =    87
   Numerical integral  =    87.022061620286
   Relative error      =     0.0253581842 %
Recomputing EXC -1171.452478 -1174.484891 -1174.011164 
 Inaccurate integrated density:
   Number of electrons =    87
   Numerical integral  =    87.022266761571
   Relative error      =     0.0255939788 %
Recomputing EXC -1173.888649 -1174.033888 -1174.011164 
 Inaccurate integrated density:
   Number of electrons =    87
   Numerical integral  =    87.022276618432
   Relative error      =     0.0256053085 %
Recomputing EXC -1174.004659 -1174.012254 -1174.011164 
   42   -1174.0046585309      1.74E-01
 Inaccurate integrated density:
   Number of electrons =    87
   Numerical integral  =    87.017571573316
   Relative error      =     0.0201972107 %
 Inaccurate integrated density:
   Number of electrons =    87
   Numerical integral  =    87.022061476135
   Relative error      =     0.0253580185 %
Recomputing EXC -1171.445820 -1174.478060 -1174.004659 
 Inaccurate integrated density:
   Number of electrons =    87
   Numerical integral  =    87.022266287895
   Relative error      =     0.0255934344 %
Recomputing EXC -1173.882191 -1174.027354 -1174.004659 
 Inaccurate integrated density:
   Number of electrons =    87
   Numerical integral  =    87.022276123264
   Relative error      =     0.0256047394 %
Recomputing EXC -1173.998144 -1174.005746 -1174.004659 
   43   -1173.9981437051      1.74E-01
 Inaccurate integrated density:
   Number of electrons =    87
   Numerical integral  =    87.017576131996
   Relative error      =     0.0202024506 %
 Inaccurate integrated density:
   Number of electrons =    87
   Numerical integral  =    87.022061340593
   Relative error      =     0.0253578628 %
Recomputing EXC -1171.439138 -1174.471216 -1173.998144 
 Inaccurate integrated density:
   Number of electrons =    87
   Numerical integral  =    87.022265816106
   Relative error      =     0.0255928921 %
Recomputing EXC -1173.875724 -1174.020810 -1173.998144 
 Inaccurate integrated density:
   Number of electrons =    87
   Numerical integral  =    87.022275629578
   Relative error      =     0.0256041719 %
Recomputing EXC -1173.991620 -1173.999229 -1173.998144 
   44   -1173.9916196611      1.74E-01
 Inaccurate integrated density:
   Number of electrons =    87
   Numerical integral  =    87.017580811441
   Relative error      =     0.0202078292 %
 Inaccurate integrated density:
   Number of electrons =    87
   Numerical integral  =    87.022061213331
   Relative error      =     0.0253577165 %
Recomputing EXC -1171.432433 -1174.464361 -1173.991620 
 Inaccurate integrated density:
   Number of electrons =    87
   Numerical integral  =    87.022265346172
   Relative error      =     0.0255923519 %
Recomputing EXC -1173.869248 -1174.014256 -1173.991620 
 Inaccurate integrated density:
   Number of electrons =    87
   Numerical integral  =    87.022275137363
   Relative error      =     0.0256036062 %
Recomputing EXC -1173.985086 -1173.992703 -1173.991620 
   45   -1173.9850864789      1.74E-01
 Inaccurate integrated density:
   Number of electrons =    87
   Numerical integral  =    87.017585611647
   Relative error      =     0.0202133467 %
 Inaccurate integrated density:
   Number of electrons =    87
   Numerical integral  =    87.022061094557
   Relative error      =     0.0253575800 %
Recomputing EXC -1171.425705 -1174.457495 -1173.985086 
 Inaccurate integrated density:
   Number of electrons =    87
   Numerical integral  =    87.022264878112
   Relative error      =     0.0255918139 %
Recomputing EXC -1173.862764 -1174.007693 -1173.985086 
 Inaccurate integrated density:
   Number of electrons =    87
   Numerical integral  =    87.022274646655
   Relative error      =     0.0256030421 %
Recomputing EXC -1173.978544 -1173.986168 -1173.985086 
   46   -1173.9785442530      1.74E-01
 Inaccurate integrated density:
   Number of electrons =    87
   Numerical integral  =    87.017590531933
   Relative error      =     0.0202190022 %
 Inaccurate integrated density:
   Number of electrons =    87
   Numerical integral  =    87.022060984156
   Relative error      =     0.0253574531 %
Recomputing EXC -1171.418955 -1174.450617 -1173.978544 
 Inaccurate integrated density:
   Number of electrons =    87
   Numerical integral  =    87.022264411944
   Relative error      =     0.0255912781 %
Recomputing EXC -1173.856271 -1174.001121 -1173.978544 
 Inaccurate integrated density:
   Number of electrons =    87
   Numerical integral  =    87.022274157472
   Relative error      =     0.0256024799 %
Recomputing EXC -1173.971993 -1173.979623 -1173.978544 
   47   -1173.9719931026      1.74E-01
 Inaccurate integrated density:
   Number of electrons =    87
   Numerical integral  =    87.017595572248
   Relative error      =     0.0202247957 %
 Inaccurate integrated density:
   Number of electrons =    87
   Numerical integral  =    87.022060882120
   Relative error      =     0.0253573358 %
Recomputing EXC -1171.412183 -1174.443728 -1173.971993 
 Inaccurate integrated density:
   Number of electrons =    87
   Numerical integral  =    87.022263947668
   Relative error      =     0.0255907444 %
Recomputing EXC -1173.849769 -1173.994540 -1173.971993 
 Inaccurate integrated density:
   Number of electrons =    87
   Numerical integral  =    87.022273669840
   Relative error      =     0.0256019194 %
Recomputing EXC -1173.965433 -1173.973070 -1173.971993 
   48   -1173.9654330987      1.74E-01
 Inaccurate integrated density:
   Number of electrons =    87
   Numerical integral  =    87.017600732834
   Relative error      =     0.0202307274 %
 Inaccurate integrated density:
   Number of electrons =    87
   Numerical integral  =    87.022060788316
   Relative error      =     0.0253572279 %
Recomputing EXC -1171.405388 -1174.436828 -1173.965433 
 Inaccurate integrated density:
   Number of electrons =    87
   Numerical integral  =    87.022263485278
   Relative error      =     0.0255902130 %
Recomputing EXC -1173.843259 -1173.987949 -1173.965433 
 Inaccurate integrated density:
   Number of electrons =    87
   Numerical integral  =    87.022273183755
   Relative error      =     0.0256013606 %
Recomputing EXC -1173.958864 -1173.966508 -1173.965433 
   49   -1173.9588643357      1.74E-01
 Inaccurate integrated density:
   Number of electrons =    87
   Numerical integral  =    87.017606013076
   Relative error      =     0.0202367966 %
 Inaccurate integrated density:
   Number of electrons =    87
   Numerical integral  =    87.022060702990
   Relative error      =     0.0253571299 %
Recomputing EXC -1171.398572 -1174.429917 -1173.958864 
 Inaccurate integrated density:
   Number of electrons =    87
   Numerical integral  =    87.022263024942
   Relative error      =     0.0255896838 %
Recomputing EXC -1173.836740 -1173.981350 -1173.958864 
 Inaccurate integrated density:
   Number of electrons =    87
   Numerical integral  =    87.022272699249
   Relative error      =     0.0256008037 %
Recomputing EXC -1173.952287 -1173.959937 -1173.958864 
   50   -1173.9522869273      1.74E-01 Done RCA. Switching to DIIS
 Inaccurate integrated density:
   Number of electrons =    87
   Numerical integral  =    87.017611413235
   Relative error      =     0.0202430037 %
   51   -1107.1180207126      1.95E-02
 Inaccurate integrated density:
   Number of electrons =    87
   Numerical integral  =    87.012203589412
   Relative error      =     0.0140271143 %
   52   -1131.2542653442      1.16E-01
 Inaccurate integrated density:
   Number of electrons =    87
   Numerical integral  =    87.015303057404
   Relative error      =     0.0175897212 %
   53   -1112.1008285199      3.10E-02
 Inaccurate integrated density:
   Number of electrons =    87
   Numerical integral  =    87.018507751858
   Relative error      =     0.0212732780 %
   54   -1133.7153236050      2.56E-02
 Inaccurate integrated density:
   Number of electrons =    87
   Numerical integral  =    87.017476985345
   Relative error      =     0.0200884889 %
   55   -1107.0914594121      1.34E-02
 Inaccurate integrated density:
   Number of electrons =    87
   Numerical integral  =    87.017303302665
   Relative error      =     0.0198888536 %
   56   -1102.8101582871      7.65E-03
 Inaccurate integrated density:
   Number of electrons =    87
   Numerical integral  =    87.018662328010
   Relative error      =     0.0214509517 %
   57   -1133.1356916597      1.92E-02
 Inaccurate integrated density:
   Number of electrons =    87
   Numerical integral  =    87.018948993897
   Relative error      =     0.0217804528 %
   58   -1124.8287370822      1.10E-02
 Inaccurate integrated density:
   Number of electrons =    87
   Numerical integral  =    87.018042230744
   Relative error      =     0.0207381963 %
   59   -1110.0554857616      2.17E-02
 Inaccurate integrated density:
   Number of electrons =    87
   Numerical integral  =    87.018123502766
   Relative error      =     0.0208316124 %
   60   -1110.3506969449      2.20E-02
 Inaccurate integrated density:
   Number of electrons =    87
   Numerical integral  =    87.018118403382
   Relative error      =     0.0208257510 %
   61   -1110.3389121254      2.20E-02
 Inaccurate integrated density:
   Number of electrons =    87
   Numerical integral  =    87.021752045169
   Relative error      =     0.0250023508 %
   62   -1103.3190784759      7.32E-03
 Inaccurate integrated density:
   Number of electrons =    87
   Numerical integral  =    87.022906302423
   Relative error      =     0.0263290832 %
   63   -1104.0439809941      5.37E-03
 Inaccurate integrated density:
   Number of electrons =    87
   Numerical integral  =    87.027227978338
   Relative error      =     0.0312965268 %
   64   -1110.5417680728      3.63E-02
 Inaccurate integrated density:
   Number of electrons =    87
   Numerical integral  =    87.022392714399
   Relative error      =     0.0257387522 %
   65   -1105.7284375979      1.35E-02
 Inaccurate integrated density:
   Number of electrons =    87
   Numerical integral  =    87.030276449667
   Relative error      =     0.0348005169 %
   66   -1137.1754421343      1.91E-01
 Inaccurate integrated density:
   Number of electrons =    87
   Numerical integral  =    87.013359975759
   Relative error      =     0.0153562940 %
   67   -1104.4789530936      5.66E-03
 Inaccurate integrated density:
   Number of electrons =    87
   Numerical integral  =    87.009558736136
   Relative error      =     0.0109870530 %
   68   -1104.6684134777      2.13E-03
   69   -1104.6375611719      1.65E-03
   70   -1104.6707711082      1.22E-03
   71   -1104.6819382062      1.19E-03
   72   -1104.6683214161      1.25E-03
   73   -1104.6897106403      1.08E-03
   74   -1104.6609166459      1.14E-03
   75   -1104.6559691865      1.15E-03
   76   -1104.6522790292      1.17E-03
 Inaccurate integrated density:
   Number of electrons =    87
   Numerical integral  =    87.009216657901
   Relative error      =     0.0105938597 %
   77   -1104.6365994969      1.14E-03
 Inaccurate integrated density:
   Number of electrons =    87
   Numerical integral  =    87.009237039778
   Relative error      =     0.0106172871 %
   78   -1104.6378461185      1.13E-03
   79   -1104.6451760628      1.13E-03
   80   -1104.8023012533      1.37E-03
   81   -1104.8213240953      4.33E-04
   82   -1104.8213566383      5.64E-04
   83   -1104.8238101576      1.31E-04
   84   -1104.8239699650      5.98E-05
   85   -1104.8240142702      1.39E-05
   86   -1104.8240246774      7.49E-06
   87   -1104.8240280104      2.12E-06
   88   -1104.8240302883      7.28E-07
   89   -1104.8240307735      3.77E-07
   90   -1104.8240308876      3.14E-07
   91   -1104.8240309024      1.09E-07
   92   -1104.8240309045      4.77E-08
   93   -1104.8240309059      2.88E-08
   94   -1104.8240309055      1.26E-08
   95   -1104.8240309051      5.08E-09 Convergence criterion met
 ---------------------------------------
 <S^2> = 0.7587
 SCF time:  CPU 85.74 s  wall 77.85 s
 SCF   energy in the final basis set = -1104.8240309051
 Total energy in the final basis set = -1104.8240309051
 
 --------------------------------------------------------------
             Orbital Energies (a.u.) and Symmetries
 --------------------------------------------------------------
 
 Alpha MOs, Unrestricted
 -- Occupied --                  
-88.748 -88.748 -10.060 -10.059 -10.058 -10.058 -10.048 -10.048
  1 B     1 A     2 A     2 B     3 B     3 A     4 A     4 B                  
-10.038 -10.038  -7.807  -7.807  -5.771  -5.771  -5.768  -5.768
  5 B     5 A     6 B     6 A     7 B     7 A     8 B     8 A                  
 -5.765  -5.765  -0.723  -0.702  -0.605  -0.577  -0.574  -0.536
  9 B     9 A    10 A    10 B    11 A    12 A    11 B    12 B                  
 -0.447  -0.407  -0.402  -0.371  -0.362  -0.315  -0.259  -0.254
 13 A    14 A    13 B    14 B    15 A    15 B    16 A    16 B                  
 -0.251  -0.243  -0.235  -0.209  -0.209  -0.189  -0.185  -0.108
 17 A    17 B    18 A    19 A    18 B    20 A    19 B    21 A                  
 -0.102  -0.096  -0.069   0.064
 20 B    21 B    22 A    22 B                                                  
 -- Virtual --                   
  0.093   0.096   0.109   0.112   0.115   0.125   0.135   0.149
 23 A    23 B    24 A    24 B    25 A    26 A    25 B    27 A                  
  0.153   0.156   0.163   0.176   0.176   0.181   0.183   0.187
 26 B    28 A    27 B    29 A    28 B    30 A    29 B    31 A                  
  0.195   0.200   0.211   0.214   0.218   0.218   0.225   0.228
 30 B    32 A    33 A    31 B    32 B    34 A    35 A    33 B                  
  0.232   0.237   0.238   0.242   0.247   0.250   0.259   0.268
 34 B    36 A    35 B    37 A    38 A    36 B    37 B    39 A                  
  0.272   0.280   0.282   0.284   0.291   0.297   0.299   0.307
 38 B    39 B    40 A    41 A    42 A    40 B    41 B    43 A                  
  0.311   0.326   0.334   0.341   0.342   0.344   0.352   0.366
 42 B    43 B    44 A    44 B    45 A    46 A    45 B    46 B                  
  0.383   0.388   0.394   0.397   0.407   0.429   0.443   0.450
 47 A    47 B    48 A    48 B    49 A    50 A    49 B    50 B                  
  0.459   0.466   0.484   0.491   0.510   0.543   0.560   0.610
 51 A    52 A    53 A    51 B    52 B    54 A    53 B    55 A                  
  0.613   0.645   0.671   0.672   0.702   0.717   0.721   0.743
 56 A    54 B    57 A    55 B    56 B    58 A    57 B    59 A                  
  0.757   0.795   0.800   0.807   0.821   0.825   0.844   0.844
 58 B    60 A    59 B    61 A    62 A    60 B    63 A    61 B                  
  0.872   0.873   0.899   0.912   0.917   0.919   0.927   0.956
 64 A    62 B    63 B    64 B    65 A    65 B    66 A    67 A                  
  0.963   0.987   0.998   1.044   1.050   1.095   1.097   1.104
 66 B    68 A    67 B    69 A    68 B    69 B    70 A    70 B                  
  1.109   1.113   1.119   1.128   1.130   1.135   1.161   1.175
 71 A    72 A    71 B    72 B    73 A    73 B    74 A    74 B                  
  1.197   1.200   1.234   1.249   1.251   1.254   1.274   1.315
 75 A    75 B    76 A    76 B    77 A    78 A    77 B    78 B                  
  1.331   1.356   1.379   1.427   1.477   1.505   1.508   1.514
 79 A    80 A    79 B    81 A    80 B    82 A    81 B    83 A                  
  1.520   1.544   1.608   1.634   1.660   1.681   1.736   1.842
 82 B    84 A    83 B    84 B    85 A    86 A    85 B    87 A                  
  1.844   1.958   1.987   1.993   2.041   2.052   2.065   2.071
 86 B    87 B    88 A    89 A    88 B    90 A    89 B    91 A                  
  2.095   2.100   2.169   2.171   2.208   2.217   2.271   2.299
 90 B    92 A    93 A    91 B    92 B    94 A    95 A    93 B                  
  2.327   2.342   2.354   2.398   2.412   2.480   2.514   2.518
 94 B    95 B    96 A    96 B    97 A    98 A    99 A    97 B                  
  2.577   2.594   2.619   2.622   2.636   2.666   2.671   2.685
 98 B   100 A    99 B   101 A   100 B   102 A   101 B   103 A                  
  2.735   2.739   2.780   2.786   2.845   2.855   2.930   2.963
102 B   104 A   103 B   105 A   104 B   106 A   105 B   107 A                  
  3.019   3.019   3.116   3.305   3.341   3.416   3.419   3.555
108 A   106 B   107 B   109 A   108 B   109 B   110 A   111 A                  
  3.578   3.866   3.886   4.122   4.135   4.449   4.451   4.465
110 B   112 A   111 B   113 A   112 B   114 A   113 B   115 A                  
  4.476   4.595   4.675   4.813   4.871
114 B   116 A   115 B   117 A   116 B                                          
 
 Beta MOs, Unrestricted
 -- Occupied --                  
-88.748 -88.748 -10.057 -10.057 -10.055 -10.055 -10.048 -10.048
  1 B     1 A     2 A     2 B     3 B     3 A     4 A     4 B                  
-10.037 -10.037  -7.807  -7.807  -5.771  -5.771  -5.768  -5.768
  5 B     5 A     6 B     6 A     7 B     7 A     8 B     8 A                  
 -5.763  -5.763  -0.718  -0.699  -0.599  -0.573  -0.571  -0.532
  9 B     9 A    10 A    10 B    11 A    12 A    11 B    12 B                  
 -0.440  -0.405  -0.398  -0.369  -0.360  -0.313  -0.257  -0.251
 13 A    14 A    13 B    14 B    15 A    15 B    16 A    16 B                  
 -0.249  -0.237  -0.232  -0.204  -0.201  -0.185  -0.182  -0.100
 17 A    17 B    18 A    18 B    19 A    20 A    19 B    21 A                  
 -0.094  -0.079  -0.054
 20 B    21 B    22 A                                                          
 -- Virtual --                   
  0.093   0.095   0.109   0.111   0.116   0.122   0.130   0.135
 23 A    22 B    24 A    23 B    24 B    25 A    26 A    25 B                  
  0.149   0.152   0.159   0.164   0.176   0.176   0.183   0.187
 27 A    26 B    28 A    27 B    29 A    28 B    30 A    29 B                  
  0.189   0.196   0.200   0.211   0.215   0.218   0.219   0.225
 31 A    30 B    32 A    33 A    31 B    32 B    34 A    35 A                  
  0.229   0.233   0.238   0.239   0.244   0.246   0.251   0.259
 33 B    34 B    36 A    35 B    37 A    38 A    36 B    37 B                  
  0.271   0.273   0.281   0.282   0.284   0.292   0.298   0.301
 39 A    38 B    39 B    40 A    41 A    42 A    40 B    41 B                  
  0.312   0.313   0.326   0.335   0.343   0.343   0.344   0.352
 42 B    43 A    43 B    44 A    45 A    44 B    46 A    45 B                  
  0.367   0.383   0.389   0.395   0.399   0.407   0.430   0.445
 46 B    47 A    47 B    48 A    48 B    49 A    50 A    49 B                  
  0.452   0.460   0.468   0.484   0.491   0.513   0.544   0.564
 50 B    51 A    52 A    53 A    51 B    52 B    54 A    53 B                  
  0.612   0.615   0.648   0.673   0.674   0.704   0.720   0.724
 55 A    56 A    54 B    57 A    55 B    56 B    58 A    57 B                  
  0.745   0.760   0.799   0.804   0.813   0.826   0.834   0.846
 59 A    58 B    60 A    59 B    61 A    62 A    60 B    63 A                  
  0.849   0.874   0.875   0.901   0.916   0.921   0.923   0.930
 61 B    64 A    62 B    63 B    64 B    65 A    65 B    66 A                  
  0.958   0.968   0.993   1.003   1.046   1.052   1.097   1.100
 67 A    66 B    68 A    67 B    69 A    68 B    69 B    70 A                  
  1.107   1.110   1.117   1.121   1.130   1.131   1.137   1.164
 70 B    71 A    72 A    71 B    72 B    73 A    73 B    74 A                  
  1.177   1.199   1.203   1.237   1.252   1.252   1.257   1.277
 74 B    75 A    75 B    76 A    77 A    76 B    78 A    77 B                  
  1.316   1.334   1.359   1.381   1.431   1.480   1.510   1.513
 78 B    79 A    80 A    79 B    81 A    80 B    82 A    81 B                  
  1.517   1.523   1.547   1.610   1.637   1.662   1.686   1.740
 83 A    82 B    84 A    83 B    84 B    85 A    86 A    85 B                  
  1.851   1.854   1.967   1.989   1.996   2.043   2.056   2.066
 87 A    86 B    87 B    88 A    89 A    88 B    90 A    89 B                  
  2.076   2.100   2.102   2.172   2.174   2.209   2.222   2.277
 91 A    90 B    92 A    93 A    91 B    92 B    94 A    95 A                  
  2.307   2.331   2.348   2.361   2.401   2.417   2.484   2.516
 93 B    94 B    95 B    96 A    96 B    97 A    98 A    99 A                  
  2.519   2.580   2.597   2.622   2.625   2.638   2.667   2.675
 97 B    98 B   100 A    99 B   101 A   100 B   102 A   101 B                  
  2.690   2.738   2.742   2.782   2.790   2.847   2.858   2.933
103 A   102 B   104 A   103 B   105 A   104 B   106 A   105 B                  
  2.965   3.021   3.021   3.118   3.306   3.342   3.416   3.420
107 A   106 B   108 A   107 B   109 A   108 B   109 B   110 A                  
  3.556   3.579   3.867   3.887   4.124   4.137   4.454   4.455
111 A   110 B   112 A   111 B   113 A   112 B   114 A   113 B                  
  4.467   4.478   4.600   4.680   4.815   4.874
115 A   114 B   116 A   115 B   117 A   116 B                                  
 --------------------------------------------------------------
 
          Ground-State Mulliken Net Atomic Charges

     Atom                 Charge (a.u.)    Spin (a.u.)
  --------------------------------------------------------
      1 S                    -0.178812       0.143826
      2 C                    -0.080920       0.201522
      3 C                    -0.344447      -0.046294
      4 C                     0.165721       0.162991
      5 C                    -0.360982       0.034946
      6 H                     0.087949       0.002911
      7 C                    -0.360982       0.034946
      8 S                    -0.178812       0.143826
      9 C                     0.165721       0.162991
     10 C                    -0.080920       0.201522
     11 C                    -0.344447      -0.046294
     12 H                     0.071893       0.005114
     13 H                     0.139596      -0.005015
     14 H                     0.071893       0.005114
     15 H                     0.139596      -0.005015
     16 H                     0.087949       0.002911
  --------------------------------------------------------
  Sum of atomic charges =    -1.000000
  Sum of spin   charges =     1.000000

 -----------------------------------------------------------------
                    Cartesian Multipole Moments
 -----------------------------------------------------------------
    Charge (ESU x 10^10)
                -4.8032
    Dipole Moment (Debye)
         X       0.0000      Y       0.0000      Z      -0.5796
       Tot       0.5796
    Quadrupole Moments (Debye-Ang)
        XX     -99.9314     XY      -0.8674     YY     -86.8342
        XZ       0.0000     YZ      -0.0000     ZZ     -84.5343
    Octopole Moments (Debye-Ang^2)
       XXX       0.0000    XXY       0.0000    XYY      -0.0000
       YYY      -0.0000    XXZ       7.7150    XYZ       5.7570
       YYZ       0.3579    XZZ      -0.0000    YZZ      -0.0000
       ZZZ       0.0236
    Hexadecapole Moments (Debye-Ang^3)
      XXXX   -2492.2561   XXXY       3.3150   XXYY    -501.8545
      XYYY      14.1057   YYYY    -366.5840   XXXZ       0.0000
      XXYZ      -0.0000   XYYZ      -0.0000   YYYZ       0.0000
      XXZZ    -506.2375   XYZZ      -5.8382   YYZZ    -135.1570
      XZZZ      -0.0000   YZZZ      -0.0000   ZZZZ    -530.0681
 -----------------------------------------------------------------
 Calculating analytic gradient of the SCF energy
 Gradient of SCF Energy
            1           2           3           4           5           6
    1  -0.0081826   0.0029772  -0.0028541   0.0035726  -0.0154927   0.0012726
    2   0.0011254  -0.0022054  -0.0027790  -0.0092786   0.0061735   0.0013666
    3  -0.0038849  -0.0037310   0.0053776  -0.0027210   0.0077222  -0.0012883
            7           8           9          10          11          12
    1   0.0154927   0.0081826  -0.0035726  -0.0029772   0.0028541   0.0001111
    2  -0.0061735  -0.0011254   0.0092786   0.0022054   0.0027790  -0.0004847
    3   0.0077222  -0.0038849  -0.0027210  -0.0037310   0.0053776  -0.0001680
           13          14          15          16
    1  -0.0002593  -0.0001111   0.0002593  -0.0012726
    2   0.0030597   0.0004847  -0.0030597  -0.0013666
    3  -0.0013066  -0.0001680  -0.0013066  -0.0012883
 Max gradient component =       1.549E-02
 RMS gradient           =       5.068E-03
 Gradient time:  CPU 1.83 s  wall 1.84 s
 Geometry Optimization Parameters
   NAtoms,    NIC,     NZ,  NCons,   NDum,   NFix, NCnnct, MaxDiis
       16     111       0       1       0       0       0       0


** CONSTRAINED OPTIMIZATION IN DELOCALIZED INTERNAL COORDINATES **
   Searching for a Minimum

   Optimization Cycle:   1

                       Coordinates (Angstroms)
     ATOM                X               Y               Z
      1  S         1.6914811862    0.7450310075    0.9577404492
      2  C         3.1939002440    0.1293265949    0.2583977173
      3  C         2.9310131056   -0.6365421904   -0.8621011306
      4  C         1.5621602707   -0.7510324277   -1.1867342162
      5  C         0.7017598868   -0.0584508743   -0.3030323545
      6  H         1.1876851016   -1.3145172759   -2.0347071359
      7  C        -0.7017598868    0.0584508743   -0.3030323545
      8  S        -1.6914811862   -0.7450310075    0.9577404492
      9  C        -1.5621602707    0.7510324277   -1.1867342162
     10  C        -3.1939002440   -0.1293265949    0.2583977173
     11  C        -2.9310131056    0.6365421904   -0.8621011306
     12  H        -3.7191853509    1.1102424687   -1.4427525039
     13  H         4.1444479181    0.3688276163    0.7144327360
     14  H         3.7191853509   -1.1102424687   -1.4427525039
     15  H        -4.1444479181   -0.3688276163    0.7144327360
     16  H        -1.1876851016    1.3145172759   -2.0347071359
   Point Group: c2    Number of degrees of freedom:    22


   Energy is  -1104.824030905

              Constraints and their Current Values
                                        Value     Constraint
   Dihedral:        4   5   7   9      -70.000      -70.000

 Attempting to Generate Delocalized Internal Coordinates

 21 Hessian modes will be used to form the next step
  Hessian Eigenvalues:
     0.045000    0.045000    0.045000    0.045000    0.045000    0.045000
     0.160000    0.160000    0.160000    0.221184    0.237470    0.250000
     0.264210    0.283931    0.350974    0.354198    0.358566    0.414224
     0.425056    0.442595    0.471396

 Minimum Search - Taking Simple RFO Step
 Searching for Lamda that Minimizes Along All modes
 Value Taken    Lamda =  -0.00522712
 Step Taken.  Stepsize is  0.261791

                             Maximum     Tolerance    Cnvgd?
         Gradient           0.013871      0.000300      NO
         Displacement       0.209606      0.001200      NO
         Energy change     *********      0.000001      NO


 New Cartesian Coordinates Obtained by Inverse Iteration

 Displacement from previous Coordinates is:  0.469777
 ----------------------------------------------------------------
             Standard Nuclear Orientation (Angstroms)
    I     Atom           X                Y                Z
 ----------------------------------------------------------------
    1      S       1.7155593336     0.7136012447     0.9882185903
    2      C       3.2115908280     0.1036291070     0.2822569225
    3      C       2.9506122502    -0.5930436731    -0.8851123746
    4      C       1.5778271857    -0.6984907410    -1.2057518842
    5      C       0.7145059559    -0.0341536400    -0.3169302658
    6      H       1.1963409343    -1.2507420779    -2.0582464387
    7      C      -0.7145059559     0.0341536400    -0.3169302658
    8      S      -1.7155593336    -0.7136012447     0.9882185903
    9      C      -1.5778271857     0.6984907410    -1.2057518842
   10      C      -3.2115908280    -0.1036291070     0.2822569225
   11      C      -2.9506122502     0.5930436731    -0.8851123746
   12      H      -3.7357460850     1.0625442961    -1.4737982720
   13      H       4.1603031037     0.2786901764     0.7706072840
   14      H       3.7357460850    -1.0625442961    -1.4737982720
   15      H      -4.1603031037    -0.2786901764     0.7706072840
   16      H      -1.1963409343     1.2507420779    -2.0582464387
 ----------------------------------------------------------------
 Molecular Point Group                 C2    NOp =  2
 Largest Abelian Subgroup              C2    NOp =  2
 Nuclear Repulsion Energy =   621.8137613934 hartrees
 There are       44 alpha and       43 beta electrons
 Applying Cartesian multipole field
    Component          Value
    ---------          -----
     (2,0,0)        1.00000E-11
     (0,2,0)        2.00000E-11
     (0,0,2)       -3.00000E-11
 Nucleus-field energy     =     0.0000000095 hartrees
 Requested basis set is 6-31++G(d,p)
 There are 76 shells and 234 basis functions
 A cutoff of  1.0D-12 yielded   2513 shell pairs
 There are     24781 function pairs
 Smallest overlap matrix eigenvalue = 1.24E-06
 No. of orbitals has changed due to linear dependencies.  Generating new SCF guess.
 Guess from superposition of atomic densities
 Warning:  Energy on first SCF cycle will be non-variational
 An unrestricted hybrid HF-DFT SCF calculation will be
 performed using Relaxed Constraint Minimization + Pulay DIIS
 Exchange:     0.2000 Hartree-Fock + 0.0800 Slater + 0.7200 B88
 Correlation:  0.1900 VWN1RPA + 0.8100 LYP
 Using SG-1 standard quadrature grid
 SCF converges when DIIS error is below 1.0E-08
 Geometry optimization detected.  Setting ReadMinima to 0
 Setting SaveMinima to 0
 Inaccurate integrated density:
   Number of electrons =    87
   Numerical integral  =    85.999845980389
   Relative error      =    -1.1496023214 %
 Inaccurate integrated density:
   Number of electrons =    87
   Numerical integral  =    85.999845980389
   Relative error      =    -1.1496023214 %
 ---------------------------------------
  Cycle       Energy         DIIS Error
 ---------------------------------------
    1   -1106.9358595951      4.24E-02
    2   -1104.5802655317      5.40E-03
    3   -1104.6726393427      1.60E-03
    4   -1104.7791130472      8.31E-04 Done RCA. Switching to DIIS
    5   -1104.7916296814      1.96E-03
    6   -1104.8227200926      6.43E-04
    7   -1104.8258814709      3.90E-04
    8   -1104.8273096242      1.79E-04
    9   -1104.8276598461      6.39E-05
   10   -1104.8277241003      1.94E-05
   11   -1104.8277358215      8.77E-06
   12   -1104.8277401396      4.20E-06
   13   -1104.8277435827      1.93E-06
   14   -1104.8277451524      1.56E-06
   15   -1104.8277464748      8.44E-07
   16   -1104.8277466781      6.35E-07
   17   -1104.8277467633      4.27E-07
   18   -1104.8277468120      2.44E-07
   19   -1104.8277468317      9.09E-08
   20   -1104.8277468331      4.88E-08
   21   -1104.8277468334      1.54E-08
   22   -1104.8277468334      1.07E-08
   23   -1104.8277468334      3.61E-09 Convergence criterion met
 ---------------------------------------
 <S^2> = 0.7594
 SCF time:  CPU 16.54 s  wall 14.74 s
 SCF   energy in the final basis set = -1104.8277468334
 Total energy in the final basis set = -1104.8277468334
 
 --------------------------------------------------------------
             Orbital Energies (a.u.) and Symmetries
 --------------------------------------------------------------
 
 Alpha MOs, Unrestricted
 -- Occupied --                  
-88.748 -88.748 -10.063 -10.062 -10.058 -10.058 -10.048 -10.048
  1 B     1 A     2 A     2 B     3 B     3 A     4 B     4 A                  
-10.038 -10.038  -7.807  -7.807  -5.771  -5.771  -5.768  -5.768
  5 B     5 A     6 B     6 A     7 B     7 A     8 B     8 A                  
 -5.765  -5.765  -0.721  -0.702  -0.603  -0.577  -0.573  -0.537
  9 B     9 A    10 A    10 B    11 A    12 A    11 B    12 B                  
 -0.445  -0.407  -0.402  -0.371  -0.361  -0.317  -0.259  -0.253
 13 A    14 A    13 B    14 B    15 A    15 B    16 A    16 B                  
 -0.251  -0.241  -0.234  -0.211  -0.209  -0.187  -0.184  -0.107
 17 A    17 B    18 A    18 B    19 A    20 A    19 B    21 A                  
 -0.102  -0.098  -0.069   0.062
 20 B    21 B    22 A    22 B                                                  
 -- Virtual --                   
  0.093   0.096   0.109   0.112   0.117   0.126   0.135   0.149
 23 A    23 B    24 A    24 B    25 A    26 A    25 B    27 A                  
  0.153   0.154   0.163   0.175   0.176   0.180   0.182   0.187
 26 B    28 A    27 B    28 B    29 A    30 A    29 B    31 A                  
  0.191   0.201   0.211   0.212   0.215   0.219   0.226   0.228
 30 B    32 A    31 B    33 A    32 B    34 A    35 A    33 B                  
  0.229   0.235   0.239   0.242   0.248   0.251   0.260   0.264
 34 B    36 A    35 B    37 A    38 A    36 B    37 B    39 A                  
  0.272   0.278   0.280   0.286   0.289   0.292   0.295   0.304
 38 B    39 B    40 A    41 A    40 B    42 A    41 B    43 A                  
  0.305   0.323   0.334   0.337   0.338   0.344   0.350   0.358
 42 B    43 B    44 A    45 A    44 B    46 A    45 B    46 B                  
  0.377   0.387   0.391   0.396   0.407   0.430   0.444   0.448
 47 B    47 A    48 B    48 A    49 A    50 A    49 B    50 B                  
  0.455   0.459   0.466   0.484   0.493   0.509   0.544   0.578
 51 B    51 A    52 A    53 A    52 B    53 B    54 A    54 B                  
  0.607   0.617   0.641   0.670   0.672   0.705   0.719   0.720
 55 A    56 A    55 B    57 A    56 B    57 B    58 A    58 B                  
  0.747   0.755   0.789   0.803   0.805   0.821   0.822   0.843
 59 A    59 B    60 A    60 B    61 A    62 A    61 B    63 A                  
  0.847   0.871   0.873   0.893   0.909   0.911   0.921   0.923
 62 B    64 A    63 B    64 B    65 B    65 A    66 B    66 A                  
  0.956   0.961   0.985   0.997   1.045   1.049   1.098   1.101
 67 A    67 B    68 A    68 B    69 A    69 B    70 B    70 A                  
  1.108   1.109   1.111   1.125   1.129   1.137   1.156   1.161
 71 B    71 A    72 A    72 B    73 A    73 B    74 A    74 B                  
  1.174   1.193   1.199   1.233   1.250   1.252   1.255   1.269
 75 B    75 A    76 B    76 A    77 B    77 A    78 A    78 B                  
  1.329   1.349   1.366   1.393   1.430   1.472   1.503   1.508
 79 A    80 A    79 B    80 B    81 A    81 B    82 A    82 B                  
  1.522   1.523   1.545   1.595   1.630   1.655   1.682   1.736
 83 B    83 A    84 A    84 B    85 B    85 A    86 A    86 B                  
  1.842   1.845   1.935   1.977   2.007   2.044   2.049   2.061
 87 A    87 B    88 B    88 A    89 A    89 B    90 A    90 B                  
  2.075   2.095   2.098   2.162   2.170   2.201   2.229   2.266
 91 A    92 A    91 B    93 A    92 B    93 B    94 A    95 A                  
  2.297   2.334   2.345   2.345   2.394   2.397   2.479   2.514
 94 B    95 B    96 A    96 B    97 B    97 A    98 A    99 A                  
  2.519   2.578   2.597   2.608   2.630   2.636   2.666   2.668
 98 B    99 B   100 A   101 A   100 B   101 B   102 B   102 A                  
  2.685   2.735   2.740   2.784   2.785   2.839   2.859   2.924
103 A   104 A   103 B   105 A   104 B   105 B   106 A   106 B                  
  2.955   3.019   3.022   3.107   3.304   3.339   3.415   3.418
107 A   107 B   108 A   108 B   109 A   109 B   110 B   110 A                  
  3.553   3.575   3.863   3.884   4.117   4.135   4.446   4.463
111 A   111 B   112 A   112 B   113 A   113 B   114 A   115 A                  
  4.479   4.486   4.588   4.681   4.811   4.863
114 B   115 B   116 A   116 B   117 A   117 B                                  
 
 Beta MOs, Unrestricted
 -- Occupied --                  
-88.748 -88.748 -10.060 -10.060 -10.055 -10.055 -10.049 -10.049
[...]
      4 C                    -0.066287       0.179858
      5 C                    -0.020131       0.034072
      6 H                     0.103852      -0.004683
      7 C                    -0.020131       0.034072
      8 S                    -0.211386       0.125594
      9 C                    -0.066287       0.179858
     10 C                    -0.192121       0.236691
     11 C                    -0.327122      -0.065424
     12 H                     0.071284       0.002569
     13 H                     0.141910      -0.008676
     14 H                     0.071284       0.002569
     15 H                     0.141910      -0.008676
     16 H                     0.103852      -0.004683
  --------------------------------------------------------
  Sum of atomic charges =    -1.000000
  Sum of spin   charges =     1.000000

 -----------------------------------------------------------------
                    Cartesian Multipole Moments
 -----------------------------------------------------------------
    Charge (ESU x 10^10)
                -4.8032
    Dipole Moment (Debye)
         X       0.0000      Y       0.0000      Z      -0.4041
       Tot       0.4041
    Quadrupole Moments (Debye-Ang)
        XX    -100.4490     XY      -2.6982     YY     -86.1517
        XZ      -0.0000     YZ      -0.0000     ZZ     -84.0349
    Octopole Moments (Debye-Ang^2)
       XXX       0.0000    XXY      -0.0000    XYY      -0.0000
       YYY       0.0000    XXZ       9.2907    XYZ       4.7393
       YYZ      -1.5171    XZZ       0.0000    YZZ      -0.0000
       ZZZ      -2.4832
    Hexadecapole Moments (Debye-Ang^3)
      XXXX   -2510.6847   XXXY     -16.7772   XXYY    -492.0809
      XYYY      30.1776   YYYY    -262.2274   XXXZ      -0.0000
      XXYZ      -0.0000   XYYZ       0.0000   YYYZ      -0.0000
      XXZZ    -503.5647   XYZZ      -0.9961   YYZZ    -138.6901
      XZZZ      -0.0000   YZZZ       0.0000   ZZZZ    -600.1451
 -----------------------------------------------------------------
 Calculating analytic gradient of the SCF energy
 Gradient of SCF Energy
            1           2           3           4           5           6
    1   0.0000078   0.0000125   0.0000075   0.0002809  -0.0006276  -0.0000018
    2   0.0000172   0.0000730  -0.0000614  -0.0078994   0.0176244   0.0000131
    3  -0.0000202  -0.0000185   0.0000111   0.0055601  -0.0055278  -0.0000065
            7           8           9          10          11          12
    1   0.0006276  -0.0000078  -0.0002809  -0.0000125  -0.0000075  -0.0000062
    2  -0.0176244  -0.0000172   0.0078994  -0.0000730   0.0000614  -0.0000482
    3  -0.0055278  -0.0000202   0.0055601  -0.0000185   0.0000111  -0.0000200
           13          14          15          16
    1  -0.0000121   0.0000062   0.0000121   0.0000018
    2  -0.0000393   0.0000482   0.0000393  -0.0000131
    3   0.0000218  -0.0000200   0.0000218  -0.0000065
 Max gradient component =       1.762E-02
 RMS gradient           =       4.257E-03
 Gradient time:  CPU 1.85 s  wall 1.86 s
 Geometry Optimization Parameters
   NAtoms,    NIC,     NZ,  NCons,   NDum,   NFix, NCnnct, MaxDiis
       16     111       0       1       0       0       0       0

 Cartesian Hessian Update
 Hessian Updated using BFGS Update


** CONSTRAINED OPTIMIZATION IN DELOCALIZED INTERNAL COORDINATES **
   Searching for a Minimum

   Optimization Cycle:  10

                       Coordinates (Angstroms)
     ATOM                X               Y               Z
      1  S         1.6453131326    0.5489287585    1.0679081958
      2  C         3.1727403164    0.0274252146    0.3648351332
      3  C         2.9739486731   -0.5181804103   -0.8927275985
      4  C         1.6218049664   -0.5629961996   -1.2961533003
      5  C         0.7131936914    0.0296166831   -0.3967028330
      6  H         1.2804249907   -1.0406191852   -2.2093542206
      7  C        -0.7131936914   -0.0296166831   -0.3967028330
      8  S        -1.6453131326   -0.5489287585    1.0679081958
      9  C        -1.6218049664    0.5629961996   -1.2961533003
     10  C        -3.1727403164   -0.0274252146    0.3648351332
     11  C        -2.9739486731    0.5181804103   -0.8927275985
     12  H        -3.7846484206    0.9334312689   -1.4868057547
     13  H         4.0820422024    0.0494836133    0.9502439395
     14  H         3.7846484206   -0.9334312689   -1.4868057547
     15  H        -4.0820422024   -0.0494836133    0.9502439395
     16  H        -1.2804249907    1.0406191852   -2.2093542206
   Point Group: c2    Number of degrees of freedom:    22


   Energy is  -1104.830622075

              Constraints and their Current Values
                                        Value     Constraint
   Dihedral:        4   5   7   9      -70.000      -70.000
 Hessian Updated using BFGS Update

 21 Hessian modes will be used to form the next step
  Hessian Eigenvalues:
     0.008689    0.012698    0.025031    0.045021    0.045388    0.048974
     0.158605    0.160137    0.160472    0.220225    0.242810    0.250738
     0.265455    0.284126    0.351173    0.354274    0.358727    0.417048
     0.429264    0.471170    0.507709

 Minimum Search - Taking Simple RFO Step
 Searching for Lamda that Minimizes Along All modes
 Value Taken    Lamda =   0.00000000
 Step Taken.  Stepsize is  0.005778

                             Maximum     Tolerance    Cnvgd?
         Gradient           0.000073      0.000300     YES
         Displacement       0.003855      0.001200      NO
         Energy change     -0.000001      0.000001     YES

 Final energy is   -1104.83062207532     


 ******************************
 **  OPTIMIZATION CONVERGED  **
 ******************************

                       Coordinates (Angstroms)
     ATOM                X               Y               Z
      1  S         1.6453131326    0.5489287585    1.0679081958
      2  C         3.1727403164    0.0274252146    0.3648351332
      3  C         2.9739486731   -0.5181804103   -0.8927275985
      4  C         1.6218049664   -0.5629961996   -1.2961533003
      5  C         0.7131936914    0.0296166831   -0.3967028330
      6  H         1.2804249907   -1.0406191852   -2.2093542206
      7  C        -0.7131936914   -0.0296166831   -0.3967028330
      8  S        -1.6453131326   -0.5489287585    1.0679081958
      9  C        -1.6218049664    0.5629961996   -1.2961533003
     10  C        -3.1727403164   -0.0274252146    0.3648351332
     11  C        -2.9739486731    0.5181804103   -0.8927275985
     12  H        -3.7846484206    0.9334312689   -1.4868057547
     13  H         4.0820422024    0.0494836133    0.9502439395
     14  H         3.7846484206   -0.9334312689   -1.4868057547
     15  H        -4.0820422024   -0.0494836133    0.9502439395
     16  H        -1.2804249907    1.0406191852   -2.2093542206

Z-matrix Print:
$molecule
-1 2
S 
C  1 1.760486
H  2 1.081675 1 120.475979
C  2 1.385160 1 110.777539 3 -173.093979 0
H  4 1.087472 2 122.642025 1 177.850742 0
C  4 1.411755 2 114.166997 1 1.607972 0
H  6 1.085633 4 123.746155 2 174.148930 0
C  6 1.409176 4 114.948902 2 -3.919674 0
C  8 1.427617 6 128.812833 4 169.162589 0
C  9 1.409176 8 128.812833 6 69.999986 0
H  10 1.085633 9 121.276226 8 -8.958388 0
C  10 1.411755 9 114.948902 8 169.162589 0
H  12 1.087472 10 123.077997 9 179.856095 0
C  12 1.385160 10 114.166997 9 -3.919674 0
H  14 1.081675 12 128.318277 10 -170.802097 0
S  14 1.760486 12 110.777539 10 1.607972 0
$end

 
 --------------------------------------------------------------
             Orbital Energies (a.u.) and Symmetries
 --------------------------------------------------------------
 
 Alpha MOs, Unrestricted
 -- Occupied --                  
-88.748 -88.748 -10.064 -10.064 -10.057 -10.057 -10.048 -10.048
  1 B     1 A     2 A     2 B     3 B     3 A     4 B     4 A                  
-10.036 -10.036  -7.807  -7.807  -5.771  -5.771  -5.768  -5.768
  5 A     5 B     6 B     6 A     7 B     7 A     8 B     8 A                  
 -5.764  -5.764  -0.721  -0.701  -0.603  -0.578  -0.572  -0.536
  9 B     9 A    10 A    10 B    11 A    12 A    11 B    12 B                  
 -0.445  -0.408  -0.398  -0.370  -0.361  -0.316  -0.259  -0.252
 13 A    14 A    13 B    14 B    15 A    15 B    16 A    17 A                  
 -0.250  -0.239  -0.235  -0.211  -0.207  -0.190  -0.180  -0.109
 16 B    17 B    18 A    18 B    19 A    20 A    19 B    20 B                  
 -0.106  -0.101  -0.061   0.055
 21 A    21 B    22 A    22 B                                                  
 -- Virtual --                   
  0.094   0.096   0.109   0.114   0.123   0.127   0.137   0.151
 23 A    23 B    24 A    24 B    25 A    26 A    25 B    27 A                  
  0.154   0.155   0.169   0.174   0.175   0.178   0.181   0.189
 28 A    26 B    27 B    29 A    28 B    30 A    29 B    31 A                  
  0.197   0.204   0.209   0.213   0.214   0.221   0.228   0.230
 30 B    32 A    31 B    32 B    33 A    34 A    35 A    33 B                  
  0.231   0.234   0.243   0.245   0.251   0.256   0.256   0.264
 34 B    36 A    37 A    35 B    38 A    36 B    39 A    37 B                  
  0.275   0.275   0.278   0.286   0.294   0.296   0.297   0.301
 38 B    40 A    39 B    40 B    41 A    41 B    42 A    43 A                  
  0.311   0.327   0.328   0.333   0.339   0.343   0.346   0.363
 42 B    44 A    43 B    45 A    44 B    45 B    46 A    46 B                  
  0.370   0.390   0.398   0.399   0.408   0.432   0.436   0.448
 47 B    47 A    48 B    48 A    49 A    50 A    49 B    50 B                  
  0.461   0.461   0.462   0.482   0.488   0.510   0.546   0.570
 51 B    51 A    52 A    53 A    52 B    53 B    54 A    54 B                  
  0.601   0.626   0.638   0.665   0.665   0.707   0.710   0.721
 55 A    56 A    55 B    56 B    57 A    57 B    58 A    58 B                  
  0.745   0.762   0.766   0.810   0.810   0.819   0.823   0.843
 59 A    60 A    59 B    61 A    60 B    62 A    61 B    63 A                  
  0.860   0.869   0.871   0.890   0.903   0.906   0.917   0.939
 62 B    64 A    63 B    64 B    65 A    65 B    66 A    66 B                  
  0.955   0.956   0.981   0.993   1.043   1.048   1.093   1.102
 67 B    67 A    68 A    68 B    69 A    69 B    70 A    70 B                  
  1.107   1.109   1.118   1.122   1.126   1.131   1.153   1.153
 71 B    71 A    72 A    72 B    73 B    73 A    74 B    74 A                  
  1.185   1.191   1.205   1.232   1.253   1.254   1.260   1.268
 75 A    75 B    76 B    76 A    77 A    77 B    78 B    78 A                  
  1.317   1.345   1.356   1.384   1.437   1.472   1.484   1.495
 79 A    80 A    79 B    80 B    81 A    81 B    82 B    82 A                  
  1.516   1.542   1.548   1.563   1.635   1.636   1.689   1.774
 83 A    83 B    84 B    84 A    85 A    85 B    86 A    86 B                  
  1.844   1.848   1.865   1.981   2.026   2.045   2.054   2.060
 87 B    87 A    88 B    88 A    89 A    89 B    90 A    90 B                  
  2.083   2.102   2.112   2.164   2.167   2.184   2.241   2.257
 91 A    91 B    92 A    93 A    92 B    93 B    94 A    95 A                  
  2.293   2.314   2.328   2.350   2.398   2.412   2.472   2.520
 94 B    96 A    95 B    96 B    97 A    97 B    98 A    99 A                  
  2.526   2.579   2.589   2.598   2.625   2.636   2.665   2.671
 98 B    99 B   100 A   101 A   100 B   101 B   102 A   102 B                  
  2.693   2.734   2.741   2.783   2.797   2.836   2.864   2.915
103 A   104 A   103 B   104 B   105 A   105 B   106 A   106 B                  
  2.951   3.025   3.025   3.098   3.302   3.339   3.416   3.418
107 A   107 B   108 A   108 B   109 A   109 B   110 B   110 A                  
  3.551   3.568   3.860   3.880   4.103   4.153   4.443   4.469
111 A   111 B   112 A   112 B   113 A   113 B   114 A   115 A                  
  4.478   4.485   4.588   4.680   4.811   4.856
114 B   115 B   116 A   116 B   117 A   117 B                                  
 
 Beta MOs, Unrestricted
 -- Occupied --                  
-88.747 -88.747 -10.062 -10.062 -10.054 -10.054 -10.048 -10.048
  1 B     1 A     2 A     2 B     3 B     3 A     4 B     4 A                  
-10.035 -10.035  -7.806  -7.806  -5.771  -5.771  -5.767  -5.767
  5 B     5 A     6 B     6 A     7 B     7 A     8 B     8 A                  
 -5.763  -5.763  -0.717  -0.698  -0.598  -0.575  -0.568  -0.532
  9 B     9 A    10 A    10 B    11 A    12 A    11 B    12 B                  
 -0.438  -0.406  -0.395  -0.367  -0.359  -0.314  -0.257  -0.250
 13 A    14 A    13 B    14 B    15 A    15 B    16 A    17 A                  
 -0.247  -0.232  -0.231  -0.206  -0.199  -0.187  -0.177  -0.098
 16 B    18 A    17 B    18 B    19 A    20 A    19 B    21 A                  
 -0.094  -0.092  -0.045
 20 B    21 B    22 A                                                          
 -- Virtual --                   
  0.093   0.096   0.108   0.109   0.114   0.123   0.137   0.137
 23 A    22 B    23 B    24 A    24 B    25 A    26 A    25 B                  
  0.151   0.154   0.158   0.170   0.175   0.176   0.179   0.185
 27 A    26 B    28 A    27 B    29 A    28 B    30 A    29 B                  
  0.192   0.198   0.204   0.209   0.215   0.215   0.222   0.229
 31 A    30 B    32 A    31 B    33 A    32 B    34 A    35 A                  
  0.230   0.232   0.235   0.246   0.246   0.251   0.257   0.259
 33 B    34 B    36 A    35 B    37 A    38 A    36 B    39 A                  
  0.265   0.275   0.276   0.279   0.287   0.295   0.297   0.301
 37 B    38 B    40 A    39 B    40 B    41 A    41 B    42 A                  
  0.303   0.311   0.327   0.329   0.333   0.341   0.344   0.346
 43 A    42 B    44 A    43 B    45 A    44 B    45 B    46 A                  
  0.364   0.370   0.390   0.399   0.400   0.408   0.433   0.437
 46 B    47 B    47 A    48 B    48 A    49 A    50 A    49 B                  
  0.450   0.463   0.463   0.464   0.483   0.488   0.513   0.547
 50 B    51 B    51 A    52 A    53 A    52 B    53 B    54 A                  
  0.572   0.602   0.628   0.641   0.667   0.667   0.710   0.713
 54 B    55 A    56 A    55 B    56 B    57 A    57 B    58 A                  
  0.723   0.747   0.764   0.768   0.814   0.819   0.823   0.833
 58 B    59 A    60 A    59 B    60 B    61 A    62 A    61 B                  
  0.846   0.862   0.872   0.874   0.893   0.908   0.910   0.919
 63 A    62 B    64 A    63 B    64 B    65 A    65 B    66 A                  
  0.943   0.957   0.960   0.988   0.999   1.045   1.050   1.096
 66 B    67 A    67 B    68 A    68 B    69 A    69 B    70 A                  
  1.104   1.108   1.110   1.122   1.124   1.128   1.132   1.154
 70 B    71 B    71 A    72 A    72 B    73 B    73 A    74 B                  
  1.155   1.187   1.193   1.208   1.235   1.255   1.257   1.264
 74 A    75 A    75 B    76 B    76 A    77 A    77 B    78 B                  
  1.269   1.319   1.350   1.359   1.386   1.441   1.474   1.488
 78 A    79 A    80 A    79 B    80 B    81 A    81 B    82 B                  
  1.500   1.519   1.547   1.550   1.567   1.637   1.638   1.692
 82 A    83 A    83 B    84 B    84 A    85 B    85 A    86 A                  
  1.779   1.853   1.858   1.875   1.983   2.027   2.046   2.060
 86 B    87 B    87 A    88 B    88 A    89 A    89 B    90 A                  
  2.062   2.084   2.107   2.117   2.167   2.171   2.186   2.245
 90 B    91 A    91 B    92 A    93 A    92 B    93 B    94 A                  
  2.264   2.299   2.324   2.334   2.356   2.401   2.416   2.477
 95 A    94 B    96 A    95 B    96 B    97 A    97 B    98 A                  
  2.523   2.528   2.583   2.592   2.601   2.627   2.639   2.666
 99 A    98 B    99 B   100 A   101 A   100 B   101 B   102 A                  
  2.675   2.697   2.736   2.745   2.785   2.800   2.839   2.868
102 B   103 A   104 A   103 B   104 B   105 A   105 B   106 A                  
  2.918   2.954   3.026   3.028   3.100   3.303   3.340   3.416
106 B   107 A   107 B   108 A   108 B   109 A   109 B   110 B                  
  3.418   3.552   3.570   3.861   3.881   4.105   4.155   4.447
110 A   111 A   111 B   112 A   112 B   113 A   113 B   114 A                  
  4.471   4.482   4.487   4.593   4.685   4.814   4.859
115 A   114 B   115 B   116 A   116 B   117 A   117 B                          
 --------------------------------------------------------------
 
          Ground-State Mulliken Net Atomic Charges

     Atom                 Charge (a.u.)    Spin (a.u.)
  --------------------------------------------------------
      1 S                    -0.211386       0.125594
      2 C                    -0.192121       0.236691
      3 C                    -0.327122      -0.065424
      4 C                    -0.066287       0.179858
      5 C                    -0.020131       0.034072
      6 H                     0.103852      -0.004683
      7 C                    -0.020131       0.034072
      8 S                    -0.211386       0.125594
      9 C                    -0.066287       0.179858
     10 C                    -0.192121       0.236691
     11 C                    -0.327122      -0.065424
     12 H                     0.071284       0.002569
     13 H                     0.141910      -0.008676
     14 H                     0.071284       0.002569
     15 H                     0.141910      -0.008676
     16 H                     0.103852      -0.004683
  --------------------------------------------------------
  Sum of atomic charges =    -1.000000
  Sum of spin   charges =     1.000000

 -----------------------------------------------------------------
                    Cartesian Multipole Moments
 -----------------------------------------------------------------
    Charge (ESU x 10^10)
                -4.8032
    Dipole Moment (Debye)
         X       0.0000      Y       0.0000      Z      -0.4041
       Tot       0.4041
    Quadrupole Moments (Debye-Ang)
        XX    -100.4490     XY      -2.6982     YY     -86.1517
        XZ      -0.0000     YZ      -0.0000     ZZ     -84.0349
    Octopole Moments (Debye-Ang^2)
       XXX       0.0000    XXY      -0.0000    XYY      -0.0000
       YYY       0.0000    XXZ       9.2907    XYZ       4.7393
       YYZ      -1.5171    XZZ       0.0000    YZZ      -0.0000
       ZZZ      -2.4832
    Hexadecapole Moments (Debye-Ang^3)
      XXXX   -2510.6847   XXXY     -16.7772   XXYY    -492.0809
      XYYY      30.1776   YYYY    -262.2274   XXXZ      -0.0000
      XXYZ      -0.0000   XYYZ       0.0000   YYYZ      -0.0000
      XXZZ    -503.5647   XYZZ      -0.9961   YYZZ    -138.6901
      XZZZ      -0.0000   YZZZ       0.0000   ZZZZ    -600.1451
 -----------------------------------------------------------------
Archival summary:
1\1\nid01047\OPT\ProcedureUnspecified\BasisUnspecified\286(1-,2)\TueSep623:45:262016TueSep623:45:262016\0\\#,OPT,ProcedureUnspecified,BasisUnspecified,\\-1,2\S\C,1,1.76049\H,2,1.08167,1,120.476\C,2,1.38516,1,110.778,3,-173.094,0\H,4,1.08747,2,122.642,1,177.851,0\C,4,1.41176,2,114.167,1,1.60797,0\H,6,1.08563,4,123.746,2,174.149,0\C,6,1.40918,4,114.949,2,-3.91967,0\C,8,1.42762,6,128.813,4,169.163,0\C,9,1.40918,8,128.813,6,70,0\H,10,1.08563,9,121.276,8,-8.95839,0\C,10,1.41176,9,114.949,8,169.163,0\H,12,1.08747,10,123.078,9,179.856,0\C,12,1.38516,10,114.167,9,-3.91967,0\H,14,1.08167,12,128.318,10,-170.802,0\S,14,1.76049,12,110.778,10,1.60797,0\\\@

 Total job time:  172.84s(wall), 189.73s(cpu) 
 Tue Sep  6 23:45:26 2016

        *************************************************************
        *                                                           *
        *  Thank you very much for using Q-Chem.  Have a nice day.  *
        *                                                           *
        *************************************************************


0 sent ACK to 0 
now end server 0 ... 
