srun -N 1 --ntasks-per-node 16 --nodelist nid01048 /global/project/projectdirs/jcesr/qchem/qc44/cnl_qc441/dist/exe/qcprog.cori.exe .pt_charged_dft_30.0.in.18644.qcin.1 /dev/shm/eg_qchem/qchem18644/
Process 1 of 16 is on nid01048 - thread support 0
Process 2 of 16 is on nid01048 - thread support 0
Process 3 of 16 is on nid01048 - thread support 0
Process 4 of 16 is on nid01048 - thread support 0
Process 5 of 16 is on nid01048 - thread support 0
Process 0 of 16 is on nid01048 - thread support 0
Process 6 of 16 is on nid01048 - thread support 0
Process 15 of 16 is on nid01048 - thread support 0
initial socket setup ...start
initial socket setup ...done 
now start server 0 ... 
nid01048 10.128.4
Q-Chem Developer Version! Running on 10.128.4.*
                  Welcome to Q-Chem
     A Quantum Leap Into The Future Of Chemistry


 Q-Chem 4.4, Q-Chem, Inc., Pleasanton, CA (2016)

 Y. Shao,  Z. Gan,  E. Epifanovsky,  A. T. B. Gilbert,  M. Wormit,  
 J. Kussmann,  A. W. Lange,  A. Behn,  J. Deng,  X. Feng,  D. Ghosh,  
 M. Goldey,  P. R. Horn,  L. D. Jacobson,  I. Kaliman,  F.Rob,  
 R. Z. Khaliullin,  T. Kus,  A. Landau,  J. Liu,  E. I. Proynov,  Y. M. Rhee,  
 R. M. Richard,  M. A. Rohrdanz,  R. P. Steele,  E. J. Sundstrom,  
 H. L. Woodcock III,  P. M. Zimmerman,  D. Zuev,  B. Albrecht,  E. Alguire,  
 B. Austin,  S. A. Baeppler,  G. J. O. Beran,  Y. A. Bernard,  E. Berquist,  
 K. Brandhorst,  K. B. Bravaya,  S. T. Brown,  D. Casanova,  C.-M. Chang,  
 Y. Chen,  S. H. Chien,  K. D. Closser,  M. P. Coons,  D. L. Crittenden,  
 S. Dasgupta,  M. Diedenhofen,  R. A. DiStasio Jr.,  H. Do,  A. D. Dutoi,  
 R. G. Edgar,  P.-T. Fang,  S. Fatehi,  Q. Feng,  L. Fusti-Molnar,  
 A. Ghysels,  A. Golubeva-Zadorozhnaya,  J. Gomes,  A. Gunina,  
 M. W. D. Hanson-Heine,  P. H. P. Harbach,  A. W. Hauser,  E. G. Hohenstein,  
 Z. C. Holden,  K. Hui,  T.-C. Jagau,  H. Ji,  B. Kaduk,  K. Khistyaev,  
 Jaehoon Kim,  Jihan Kim,  R. A. King,  P. Klunzinger,  D. Kosenkov,  
 T. Kowalczyk,  C. M. Krauter,  A. Kunitsa,  K. U. Lao,  A. Laurent,  
 K. V. Lawler,  D. Lefrancois,  S. Lehtola,  S. V. Levchenko,  C. Y. Lin,  
 Y.-S. Lin,  F. Liu,  E. Livshits,  R. C. Lochan,  A. Luenser,  P. Manohar,  
 S. F. Manzer,  S.-P. Mao,  Y. Mao,  N. Mardirossian,  A. V. Marenich,  
 L. A. Martinez-Martinez,  S. A. Maurer,  N. J. Mayhall,  J.-M. Mewes,  
 A. F. Morrison,  K. Nanda,  C. M. Oana,  R. Olivares-Amaya,  D. P. O'Neill,  
 J. A. Parkhill,  T. M. Perrine,  R. Peverati,  P. A. Pieniazek,  F. Plasser,  
 A. Prociuk,  D. R. Rehn,  E. Rosta,  N. J. Russ,  N. Sergueev,  
 S. M. Sharada,  S. Sharma,  D. W. Small,  A. Sodt,  T. Stauch,  T. Stein,  
 D. Stuck,  Y.-C. Su,  A. J. W. Thom,  T. Tsuchimochi,  L. Vogt,  O. Vydrov,  
 T. Wang,  M. A. Watson,  J. Wenzel,  A. White,  C. F. Williams,  
 V. Vanovschi,  S. Yeganeh,  S. R. Yost,  Z.-Q. You,  I. Y. Zhang,  X. Zhang,  
 Y. Zhao,  B. R. Brooks,  G. K. L. Chan,  D. M. Chipman,  C. J. Cramer,  
 W. A. Goddard III,  M. S. Gordon,  W. J. Hehre,  A. Klamt,  
 H. F. Schaefer III,  M. W. Schmidt,  C. D. Sherrill,  D. G. Truhlar,  
 A. Warshel,  X. Xu,  A. Aspuru-Guzik,  R. Baer,  A. T. Bell,  N. A. Besley,  
 J.-D. Chai,  A. Dreuw,  B. D. Dunietz,  T. R. Furlani,  S. R. Gwaltney,  
 C.-P. Hsu,  Y. Jung,  J. Kong,  D. S. Lambrecht,  W. Liang,  C. Ochsenfeld,  
 V. A. Rassolov,  L. V. Slipchenko,  J. E. Subotnik,  T. Van Voorhis,  
 J. M. Herbert,  A. I. Krylov,  P. M. W. Gill,  M. Head-Gordon

 Contributors to earlier versions of Q-Chem not listed above: 
 R. D. Adamson,  J. Baker,  E. F. C. Byrd,  A. K. Chakraborty,  C.-L. Cheng,  
 H. Dachsel,  R. J. Doerksen,  G. Hawkins,  A. Heyden,  S. Hirata,  
 G. Kedziora,  F. J. Keil,  C. Kelley,  P. P. Korambath,  W. Kurlancheek,  
 A. M. Lee,  M. S. Lee,  D. Liotard,  I. Lotan,  P. E. Maslen,  N. Nair,  
 D. Neuhauser,  R. Olson,  B. Peters,  J. Ritchie,  N. E. Schultz,  
 N. Shenvi,  A. C. Simmonett,  K. S. Thanthiriwatte,  Q. Wu,  W. Zhang

 Please cite Q-Chem as follows:
 Y. Shao et al., Mol. Phys. 113, 184-215 (2015)
 DOI: 10.1080/00268976.2014.952696

 Q-Chem 4.4.1 for Intel X86 EM64T Linux

 Parts of Q-Chem use Armadillo 5.200.1 (Boston Tea Smuggler).
 http://arma.sourceforge.net/

 Q-Chem begins on Tue Sep  6 23:21:53 2016  

Host: nid01047
0

     Scratch files written to /dev/shm/eg_qchem/qchem18644.0//
 Parallel job on  16  processors

Checking the input file for inconsistencies... 	...done.

--------------------------------------------------------------
User input:
--------------------------------------------------------------
$comment
<SCF Fix Strategy>{
    "current_method_id": 1, 
    "methods": [
        "increase_iter", 
        "rca_diis", 
        "gwh", 
        "gdm", 
        "rca", 
        "core+rca", 
        "fon"
    ], 
    "version": 2.0
}</SCF Fix Strategy>
$end


$molecule
 -1  2
 S           1.83794975       -1.27576249       -0.14871336
 C           3.23937819       -0.19806434       -0.14823333
 C           2.83626844        1.12431397       -0.14890172
 C           1.43724334        1.31134696       -0.14931220
 C           0.69606563        0.10654716       -0.14908151
 H           0.95807640        2.28459073       -0.14860036
 C          -0.69610330       -0.10652413       -0.14907621
 S          -1.40349104       -1.56311591        0.62074350
 C          -1.74181952        0.67846199       -0.68866995
 C          -3.04574279       -1.06732875        0.19338014
 C          -3.02887989        0.13394266       -0.49061180
 H          -3.93702981        0.61596209       -0.84513180
 H           4.24016475       -0.60708034       -0.14954918
 H           3.54430111        1.94981573       -0.14910914
 H          -3.88976275       -1.68259044        0.47258072
 H          -1.55462450        1.61289685       -1.20693090
$end


$rem
         jobtype = opt
        exchange = b3lyp
           basis = 6-31++g**
  max_scf_cycles = 200
      mem_static = 100
       mem_total = 1500
   scf_algorithm = rca_diis
       scf_guess = sad
$end


$opt
CONSTRAINT
tors 4 5 7 9 30.0
ENDCONSTRAINT
$end

--------------------------------------------------------------
 Atom   8: ( -1.6366818638,  0.3415641189,  1.1292269377)
         ->( -1.6366818665,  0.3415640769,  1.1292269473)
 Atom  10: ( -3.1763764263,  0.0663268487,  0.3052000820)
         ->( -3.1763764462,  0.0663270280,  0.3052000222)
 Atom  11: ( -2.9657765567, -0.2802872566, -1.0164234230)
         ->( -2.9657765411, -0.2802873513, -1.0164233978)
 Atom   9: ( -1.6084105537, -0.3353926338, -1.3995339274)
         ->( -1.6084105414, -0.3353926358, -1.3995339415)
 Atom   7: ( -0.7037633354, -0.0245069978, -0.3574923939)
         ->( -0.7037633402, -0.0245068937, -0.3574924328)
 Atom  16: ( -1.2728474194, -0.5925242926, -2.3985762630)
         ->( -1.2728473936, -0.5925242010, -2.3985762985)
 Atom  14: (  3.7836653167,  0.4922989707, -1.7011660388)
         ->(  3.7836653138,  0.4922986826, -1.7011661300)
 Atom  15: ( -4.1082561414,  0.1791751013,  0.8416095081)
         ->( -4.1082561392,  0.1791748486,  0.8416095352)
 ----------------------------------------------------------------
             Standard Nuclear Orientation (Angstroms)
    I     Atom           X                Y                Z
 ----------------------------------------------------------------
    1      S       1.6366818665    -0.3415640769     1.1292269473
    2      C       3.1763764462    -0.0663270280     0.3052000222
    3      C       2.9657765411     0.2802873513    -1.0164233978
    4      C       1.6084105414     0.3353926358    -1.3995339415
    5      C       0.7037633402     0.0245068937    -0.3574924328
    6      H       1.2728473936     0.5925242010    -2.3985762985
    7      C      -0.7037633402    -0.0245068937    -0.3574924328
    8      S      -1.6366818665     0.3415640769     1.1292269473
    9      C      -1.6084105414    -0.3353926358    -1.3995339415
   10      C      -3.1763764462     0.0663270280     0.3052000222
   11      C      -2.9657765411    -0.2802873513    -1.0164233978
   12      H      -3.7836653138    -0.4922986826    -1.7011661300
   13      H       4.1082561392    -0.1791748486     0.8416095352
   14      H       3.7836653138     0.4922986826    -1.7011661300
   15      H      -4.1082561392     0.1791748486     0.8416095352
   16      H      -1.2728473936    -0.5925242010    -2.3985762985
 ----------------------------------------------------------------
 Molecular Point Group                 C2    NOp =  2
 Largest Abelian Subgroup              C2    NOp =  2
 Nuclear Repulsion Energy =   626.9214406790 hartrees
 There are       44 alpha and       43 beta electrons
 Requested basis set is 6-31++G(d,p)
 There are 76 shells and 234 basis functions

 Total QAlloc Memory Limit   1500 MB
 Mega-Array Size        98 MB
 MEM_STATIC part       100 MB
 A cutoff of  1.0D-12 yielded   2525 shell pairs
 There are     24863 function pairs
 
 -------------------------------------------------------
 OpenMP Integral Computing Module                       
 Release: version 1.0, May 2013, Q-Chem Inc. Pittsburgh 
 -------------------------------------------------------
 Integral Job Info:
 Integral job number is                      11
 Integral operator is                         1
 short-range coefficients                     0
 long-range coefficients              100000000
 Omega coefficients                           0
 if combine SR and LR in K                    0
 Integral screening is                        0
 Integral computing path is                   2
 max size of driver memory is            800000
 size of driver memory is                593474
 size of scratch memory is             15166112
 max col of scratch BK array               1296
 max len of scratch array in speh3          155
 max len of scratch index in speh4           18
 max int batch size is                      520
 min int batch size is                       52
 fixed nKL is                                52
 max L of basis functions is                  2
 order of int derivative is                   0
 number of shells is                         76
 number of basis is                         234
 number of cartesian basis is               234
 number of contracted shell pairs          2525
 number of primitive shell pairs           8216
 maxK2 (contraction) of shell pair           36
 max number of K2 of shell pair               1
 max number of CS2 of shell pair            258
 max number of PS2 of shell pair           1524
 mem total for path MDJ                   51992
 -------------------------------------------------------
 Smallest overlap matrix eigenvalue = 8.64E-07
 Linear dependence detected in AO basis
 Number of orthogonalized atomic orbitals = 233
 Maximum deviation from orthogonality = 4.344E-11

 Scale SEOQF with 1.000000e-01/1.000000e-01/1.000000e-01

 Standard Electronic Orientation quadrupole field applied
 Nucleus-field energy     =     0.0000000048 hartrees
 Guess from superposition of atomic densities
 Warning:  Energy on first SCF cycle will be non-variational
 An unrestricted hybrid HF-DFT SCF calculation will be
 performed using Relaxed Constraint Minimization + Pulay DIIS
 Exchange:     0.2000 Hartree-Fock + 0.0800 Slater + 0.7200 B88
 Correlation:  0.1900 VWN1RPA + 0.8100 LYP
 Using SG-1 standard quadrature grid
 SCF converges when DIIS error is below 1.0E-08
 Inaccurate integrated density:
   Number of electrons =    87
   Numerical integral  =    85.999901975054
   Relative error      =    -1.1495379597 %
 Inaccurate integrated density:
   Number of electrons =    87
   Numerical integral  =    85.999901975054
   Relative error      =    -1.1495379597 %
 ---------------------------------------
  Cycle       Energy         DIIS Error
 ---------------------------------------
    1   -1106.9995451219      4.30E-02
 Inaccurate integrated density:
   Number of electrons =    87
   Numerical integral  =    86.987205401910
   Relative error      =    -0.0147064346 %
 Inaccurate integrated density:
   Number of electrons =    87
   Numerical integral  =    86.987205401878
   Relative error      =    -0.0147064346 %
    2   -1077.0637736382      5.46E-02
 Inaccurate integrated density:
   Number of electrons =    87
   Numerical integral  =    86.912355428766
   Relative error      =    -0.1007408865 %
 Inaccurate integrated density:
   Number of electrons =    87
   Numerical integral  =    86.943524578829
   Relative error      =    -0.0649142772 %
    3   -1099.3459996440      1.94E-02
 Inaccurate integrated density:
   Number of electrons =    87
   Numerical integral  =    86.943047043137
   Relative error      =    -0.0654631688 %
 Inaccurate integrated density:
   Number of electrons =    87
   Numerical integral  =    86.943047043140
   Relative error      =    -0.0654631688 %
    4   -1101.8448907182      4.39E-02
 Inaccurate integrated density:
   Number of electrons =    87
   Numerical integral  =    86.945853652645
   Relative error      =    -0.0622371809 %
 Inaccurate integrated density:
   Number of electrons =    87
   Numerical integral  =    86.943524077595
   Relative error      =    -0.0649148533 %
    5   -1102.4557585120      3.15E-02
 Inaccurate integrated density:
   Number of electrons =    87
   Numerical integral  =    86.944690005231
   Relative error      =    -0.0635747066 %
 Inaccurate integrated density:
   Number of electrons =    87
   Numerical integral  =    86.943798529536
   Relative error      =    -0.0645993913 %
    6   -1102.7719092872      1.93E-02
 Inaccurate integrated density:
   Number of electrons =    87
   Numerical integral  =    86.942454129600
   Relative error      =    -0.0661446786 %
 Inaccurate integrated density:
   Number of electrons =    87
   Numerical integral  =    86.942470520480
   Relative error      =    -0.0661258385 %
    7   -1109.9984249892      3.02E-02
 Inaccurate integrated density:
   Number of electrons =    87
   Numerical integral  =    86.939238678228
   Relative error      =    -0.0698405997 %
 Inaccurate integrated density:
   Number of electrons =    87
   Numerical integral  =    86.942250464909
   Relative error      =    -0.0663787760 %
Recomputing EXC -1109.632572 -1110.127695 -1109.998425 
 Inaccurate integrated density:
   Number of electrons =    87
   Numerical integral  =    86.942480855360
   Relative error      =    -0.0661139594 %
Recomputing EXC -1109.945515 -1110.003332 -1109.998425 
 Inaccurate integrated density:
   Number of electrons =    87
   Numerical integral  =    86.942480855337
   Relative error      =    -0.0661139594 %
Recomputing EXC -1109.945515 -1109.945515 -1109.998425 
    8   -1109.9455153759      2.88E-02
 Inaccurate integrated density:
   Number of electrons =    87
   Numerical integral  =    86.939216593929
   Relative error      =    -0.0698659840 %
 Inaccurate integrated density:
   Number of electrons =    87
   Numerical integral  =    86.942243833810
   Relative error      =    -0.0663863979 %
Recomputing EXC -1109.654946 -1110.078523 -1109.945515 
 Inaccurate integrated density:
   Number of electrons =    87
   Numerical integral  =    86.942459547420
   Relative error      =    -0.0661384512 %
    9   -1109.9756348573      2.84E-02
 Inaccurate integrated density:
   Number of electrons =    87
   Numerical integral  =    86.939245241698
   Relative error      =    -0.0698330555 %
 Inaccurate integrated density:
   Number of electrons =    87
   Numerical integral  =    86.942247344759
   Relative error      =    -0.0663823623 %
Recomputing EXC -1109.616341 -1110.096085 -1109.975635 
 Inaccurate integrated density:
   Number of electrons =    87
   Numerical integral  =    86.942443793210
   Relative error      =    -0.0661565595 %
Recomputing EXC -1109.949892 -1109.984527 -1109.975635 
 Inaccurate integrated density:
   Number of electrons =    87
   Numerical integral  =    86.942458368088
   Relative error      =    -0.0661398068 %
Recomputing EXC -1109.973713 -1109.976300 -1109.975635 
   10   -1109.9737129664      2.84E-02
 Inaccurate integrated density:
   Number of electrons =    87
   Numerical integral  =    86.939243650438
   Relative error      =    -0.0698348846 %
 Inaccurate integrated density:
   Number of electrons =    87
   Numerical integral  =    86.942246349138
   Relative error      =    -0.0663835067 %
Recomputing EXC -1109.671847 -1110.093928 -1109.973713 
 Inaccurate integrated density:
   Number of electrons =    87
   Numerical integral  =    86.942440837447
   Relative error      =    -0.0661599570 %
   11   -1110.0048310270      2.81E-02
 Inaccurate integrated density:
   Number of electrons =    87
   Numerical integral  =    86.939288437646
   Relative error      =    -0.0697834050 %
 Inaccurate integrated density:
   Number of electrons =    87
   Numerical integral  =    86.942259290633
   Relative error      =    -0.0663686315 %
Recomputing EXC -1109.627843 -1110.109864 -1110.004831 
 Inaccurate integrated density:
   Number of electrons =    87
   Numerical integral  =    86.942428950874
   Relative error      =    -0.0661736197 %
Recomputing EXC -1109.980933 -1110.011671 -1110.004831 
 Inaccurate integrated density:
   Number of electrons =    87
   Numerical integral  =    86.942440052992
   Relative error      =    -0.0661608586 %
Recomputing EXC -1110.003257 -1110.005282 -1110.004831 
   12   -1110.0032572657      2.81E-02
 Inaccurate integrated density:
   Number of electrons =    87
   Numerical integral  =    86.939286961468
   Relative error      =    -0.0697851018 %
 Inaccurate integrated density:
   Number of electrons =    87
   Numerical integral  =    86.942258574767
   Relative error      =    -0.0663694543 %
Recomputing EXC -1109.683999 -1110.108148 -1110.003257 
 Inaccurate integrated density:
   Number of electrons =    87
   Numerical integral  =    86.942426790149
   Relative error      =    -0.0661761033 %
   13   -1110.0360622280      2.79E-02
 Inaccurate integrated density:
   Number of electrons =    87
   Numerical integral  =    86.939350692443
   Relative error      =    -0.0697118478 %
 Inaccurate integrated density:
   Number of electrons =    87
   Numerical integral  =    86.942274472743
   Relative error      =    -0.0663511808 %
Recomputing EXC -1109.639517 -1110.126729 -1110.036062 
 Inaccurate integrated density:
   Number of electrons =    87
   Numerical integral  =    86.942418143105
   Relative error      =    -0.0661860424 %
Recomputing EXC -1110.014178 -1110.041184 -1110.036062 
 Inaccurate integrated density:
   Number of electrons =    87
   Numerical integral  =    86.942426295664
   Relative error      =    -0.0661766717 %
Recomputing EXC -1110.034813 -1110.036355 -1110.036062 
   14   -1110.0348128388      2.79E-02
 Inaccurate integrated density:
   Number of electrons =    87
   Numerical integral  =    86.939349488896
   Relative error      =    -0.0697132312 %
 Inaccurate integrated density:
   Number of electrons =    87
   Numerical integral  =    86.942273997228
   Relative error      =    -0.0663517273 %
Recomputing EXC -1109.696283 -1110.125395 -1110.034813 
 Inaccurate integrated density:
   Number of electrons =    87
   Numerical integral  =    86.942416630871
   Relative error      =    -0.0661877806 %
   15   -1110.0696394612      2.77E-02
 Inaccurate integrated density:
   Number of electrons =    87
   Numerical integral  =    86.939433648033
   Relative error      =    -0.0696164965 %
 Inaccurate integrated density:
   Number of electrons =    87
   Numerical integral  =    86.942289564124
   Relative error      =    -0.0663338343 %
Recomputing EXC -1109.653513 -1110.148259 -1110.069639 
 Inaccurate integrated density:
   Number of electrons =    87
   Numerical integral  =    86.942410391437
   Relative error      =    -0.0661949524 %
Recomputing EXC -1110.049698 -1110.073483 -1110.069639 
 Inaccurate integrated density:
   Number of electrons =    87
   Numerical integral  =    86.942416322490
   Relative error      =    -0.0661881351 %
Recomputing EXC -1110.068655 -1110.069829 -1110.069639 
   16   -1110.0686550351      2.77E-02
 Inaccurate integrated density:
   Number of electrons =    87
   Numerical integral  =    86.939432726877
   Relative error      =    -0.0696175553 %
 Inaccurate integrated density:
   Number of electrons =    87
   Numerical integral  =    86.942289258809
   Relative error      =    -0.0663341853 %
Recomputing EXC -1109.710790 -1110.147224 -1110.068655 
 Inaccurate integrated density:
   Number of electrons =    87
   Numerical integral  =    86.942409344267
   Relative error      =    -0.0661961560 %
   17   -1110.1055293632      2.75E-02
 Inaccurate integrated density:
   Number of electrons =    87
   Numerical integral  =    86.939537145589
   Relative error      =    -0.0694975338 %
 Inaccurate integrated density:
   Number of electrons =    87
   Numerical integral  =    86.942303229760
   Relative error      =    -0.0663181267 %
Recomputing EXC -1109.670279 -1110.174511 -1110.105529 
 Inaccurate integrated density:
   Number of electrons =    87
   Numerical integral  =    86.942404811651
   Relative error      =    -0.0662013659 %
Recomputing EXC -1110.087322 -1110.108465 -1110.105529 
 Inaccurate integrated density:
   Number of electrons =    87
   Numerical integral  =    86.942409149538
   Relative error      =    -0.0661963798 %
Recomputing EXC -1110.104748 -1110.105655 -1110.105529 
   18   -1110.1047478589      2.75E-02
 Inaccurate integrated density:
   Number of electrons =    87
   Numerical integral  =    86.939536458517
   Relative error      =    -0.0694983235 %
 Inaccurate integrated density:
   Number of electrons =    87
   Numerical integral  =    86.942303034224
   Relative error      =    -0.0663183515 %
Recomputing EXC -1109.727966 -1110.173696 -1110.104748 
 Inaccurate integrated density:
   Number of electrons =    87
   Numerical integral  =    86.942404081684
   Relative error      =    -0.0662022050 %
   19   -1110.1435076895      2.74E-02
 Inaccurate integrated density:
   Number of electrons =    87
   Numerical integral  =    86.939659862962
   Relative error      =    -0.0693564794 %
 Inaccurate integrated density:
   Number of electrons =    87
   Numerical integral  =    86.942315135720
   Relative error      =    -0.0663044417 %
Recomputing EXC -1109.689527 -1110.204924 -1110.143508 
 Inaccurate integrated density:
   Number of electrons =    87
   Numerical integral  =    86.942400744912
   Relative error      =    -0.0662060403 %
Recomputing EXC -1110.126781 -1110.145804 -1110.143508 
 Inaccurate integrated density:
   Number of electrons =    87
   Numerical integral  =    86.942403955867
   Relative error      =    -0.0662023496 %
Recomputing EXC -1110.142877 -1110.143594 -1110.143508 
   20   -1110.1428773995      2.74E-02
 Inaccurate integrated density:
   Number of electrons =    87
   Numerical integral  =    86.939659353495
   Relative error      =    -0.0693570649 %
 Inaccurate integrated density:
   Number of electrons =    87
   Numerical integral  =    86.942315008251
   Relative error      =    -0.0663045882 %
Recomputing EXC -1109.747537 -1110.204272 -1110.142877 
 Inaccurate integrated density:
   Number of electrons =    87
   Numerical integral  =    86.942400228818
   Relative error      =    -0.0662066335 %
   21   -1110.1832808640      2.73E-02
 Inaccurate integrated density:
   Number of electrons =    87
   Numerical integral  =    86.939799847998
   Relative error      =    -0.0691955770 %
 Inaccurate integrated density:
   Number of electrons =    87
   Numerical integral  =    86.942325371430
   Relative error      =    -0.0662926765 %
Recomputing EXC -1109.710737 -1110.238793 -1110.183281 
 Inaccurate integrated density:
   Number of electrons =    87
   Numerical integral  =    86.942397735085
   Relative error      =    -0.0662094999 %
Recomputing EXC -1110.167784 -1110.185125 -1110.183281 
 Inaccurate integrated density:
   Number of electrons =    87
   Numerical integral  =    86.942400145376
   Relative error      =    -0.0662067295 %
Recomputing EXC -1110.182763 -1110.183343 -1110.183281 
   22   -1110.1827625339      2.73E-02
 Inaccurate integrated density:
   Number of electrons =    87
   Numerical integral  =    86.939799468999
   Relative error      =    -0.0691960126 %
 Inaccurate integrated density:
   Number of electrons =    87
   Numerical integral  =    86.942325286410
   Relative error      =    -0.0662927742 %
Recomputing EXC -1109.769005 -1110.238259 -1110.182763 
 Inaccurate integrated density:
   Number of electrons =    87
   Numerical integral  =    86.942397364343
   Relative error      =    -0.0662099260 %
   23   -1110.2245552573      2.73E-02
 Inaccurate integrated density:
   Number of electrons =    87
   Numerical integral  =    86.939954760003
   Relative error      =    -0.0690175172 %
 Inaccurate integrated density:
   Number of electrons =    87
   Numerical integral  =    86.942334163858
   Relative error      =    -0.0662825703 %
Recomputing EXC -1109.733399 -1110.275454 -1110.224555 
 Inaccurate integrated density:
   Number of electrons =    87
   Numerical integral  =    86.942395473859
   Relative error      =    -0.0662120990 %
Recomputing EXC -1110.210064 -1110.226074 -1110.224555 
 Inaccurate integrated density:
   Number of electrons =    87
   Numerical integral  =    86.942397307555
   Relative error      =    -0.0662099913 %
Recomputing EXC -1110.224120 -1110.224601 -1110.224555 
   24   -1110.2241202194      2.73E-02
 Inaccurate integrated density:
   Number of electrons =    87
   Numerical integral  =    86.939954476093
   Relative error      =    -0.0690178436 %
 Inaccurate integrated density:
   Number of electrons =    87
   Numerical integral  =    86.942334105904
   Relative error      =    -0.0662826369 %
Recomputing EXC -1109.791875 -1110.275008 -1110.224120 
 Inaccurate integrated density:
   Number of electrons =    87
   Numerical integral  =    86.942395203477
   Relative error      =    -0.0662124098 %
   25   -1110.2670675292      2.73E-02
 Inaccurate integrated density:
   Number of electrons =    87
   Numerical integral  =    86.940121860685
   Relative error      =    -0.0688254475 %
 Inaccurate integrated density:
   Number of electrons =    87
   Numerical integral  =    86.942341750062
   Relative error      =    -0.0662738505 %
Recomputing EXC -1109.757115 -1110.314351 -1110.267068 
 Inaccurate integrated density:
   Number of electrons =    87
   Numerical integral  =    86.942393752466
   Relative error      =    -0.0662140776 %
Recomputing EXC -1110.253393 -1110.268348 -1110.267068 
 Inaccurate integrated density:
   Number of electrons =    87
   Numerical integral  =    86.942395163953
   Relative error      =    -0.0662124552 %
Recomputing EXC -1110.266695 -1110.267102 -1110.267068 
   26   -1110.2666950964      2.73E-02
 Inaccurate integrated density:
   Number of electrons =    87
   Numerical integral  =    86.940121646770
   Relative error      =    -0.0688256934 %
 Inaccurate integrated density:
   Number of electrons =    87
   Numerical integral  =    86.942341709804
   Relative error      =    -0.0662738968 %
Recomputing EXC -1109.815760 -1110.313970 -1110.266695 
 Inaccurate integrated density:
   Number of electrons =    87
   Numerical integral  =    86.942393552688
   Relative error      =    -0.0662143073 %
   27   -1110.3105932316      2.73E-02
 Inaccurate integrated density:
   Number of electrons =    87
   Numerical integral  =    86.940297723846
   Relative error      =    -0.0686233059 %
 Inaccurate integrated density:
   Number of electrons =    87
   Numerical integral  =    86.942348325053
   Relative error      =    -0.0662662930 %
Recomputing EXC -1109.781699 -1110.355034 -1110.310593 
 Inaccurate integrated density:
   Number of electrons =    87
   Numerical integral  =    86.942392427305
   Relative error      =    -0.0662156008 %
Recomputing EXC -1110.297577 -1110.311697 -1110.310593 
 Inaccurate integrated density:
   Number of electrons =    87
   Numerical integral  =    86.942393524591
   Relative error      =    -0.0662143396 %
Recomputing EXC -1110.310268 -1110.310621 -1110.310593 
   28   -1110.3102683633      2.73E-02
 Inaccurate integrated density:
   Number of electrons =    87
   Numerical integral  =    86.940297561950
   Relative error      =    -0.0686234920 %
 Inaccurate integrated density:
   Number of electrons =    87
   Numerical integral  =    86.942348296478
   Relative error      =    -0.0662663259 %
Recomputing EXC -1109.840486 -1110.354702 -1110.310268 
 Inaccurate integrated density:
   Number of electrons =    87
   Numerical integral  =    86.942392277988
   Relative error      =    -0.0662157724 %
   29   -1110.3549452680      2.74E-02
 Inaccurate integrated density:
   Number of electrons =    87
   Numerical integral  =    86.940477176389
   Relative error      =    -0.0684170386 %
 Inaccurate integrated density:
   Number of electrons =    87
   Numerical integral  =    86.942354007552
   Relative error      =    -0.0662597614 %
Recomputing EXC -1109.807503 -1110.397154 -1110.354945 
 Inaccurate integrated density:
   Number of electrons =    87
   Numerical integral  =    86.942391396053
   Relative error      =    -0.0662167861 %
Recomputing EXC -1110.342457 -1110.355916 -1110.354945 
 Inaccurate integrated density:
   Number of electrons =    87
   Numerical integral  =    86.942392257605
   Relative error      =    -0.0662157959 %
Recomputing EXC -1110.354657 -1110.354968 -1110.354945 
   30   -1110.3546566520      2.74E-02
 Inaccurate integrated density:
   Number of electrons =    87
   Numerical integral  =    86.940477053764
   Relative error      =    -0.0684171796 %
 Inaccurate integrated density:
   Number of electrons =    87
   Numerical integral  =    86.942353986864
   Relative error      =    -0.0662597852 %
Recomputing EXC -1109.866412 -1110.396860 -1110.354657 
 Inaccurate integrated density:
   Number of electrons =    87
   Numerical integral  =    86.942391283081
   Relative error      =    -0.0662169160 %
   31   -1110.3999671164      2.74E-02
 Inaccurate integrated density:
   Number of electrons =    87
   Numerical integral  =    86.940647126417
   Relative error      =    -0.0682216938 %
 Inaccurate integrated density:
   Number of electrons =    87
   Numerical integral  =    86.942358702614
   Relative error      =    -0.0662543648 %
Recomputing EXC -1109.837241 -1110.440490 -1110.399967 
 Inaccurate integrated density:
   Number of electrons =    87
   Numerical integral  =    86.942390576907
   Relative error      =    -0.0662177277 %
Recomputing EXC -1110.387890 -1110.400844 -1110.399967 
 Inaccurate integrated density:
   Number of electrons =    87
   Numerical integral  =    86.942391267730
   Relative error      =    -0.0662169336 %
Recomputing EXC -1110.399705 -1110.399986 -1110.399967 
   32   -1110.3997046110      2.74E-02
 Inaccurate integrated density:
   Number of electrons =    87
   Numerical integral  =    86.940647035605
   Relative error      =    -0.0682217982 %
 Inaccurate integrated density:
   Number of electrons =    87
   Numerical integral  =    86.942358687305
   Relative error      =    -0.0662543824 %
Recomputing EXC -1109.896256 -1110.440222 -1110.399705 
 Inaccurate integrated density:
   Number of electrons =    87
   Numerical integral  =    86.942390488929
   Relative error      =    -0.0662178288 %
   33   -1110.4455124787      2.75E-02
 Inaccurate integrated density:
   Number of electrons =    87
   Numerical integral  =    86.940654768121
   Relative error      =    -0.0682129102 %
 Inaccurate integrated density:
   Number of electrons =    87
   Numerical integral  =    86.942359349201
   Relative error      =    -0.0662536216 %
Recomputing EXC -1109.897590 -1110.485542 -1110.445512 
 Inaccurate integrated density:
   Number of electrons =    87
   Numerical integral  =    86.942389804125
   Relative error      =    -0.0662186159 %
Recomputing EXC -1110.433622 -1110.446391 -1110.445512 
 Inaccurate integrated density:
   Number of electrons =    87
   Numerical integral  =    86.942390473822
   Relative error      =    -0.0662178462 %
Recomputing EXC -1110.445250 -1110.445532 -1110.445512 
   34   -1110.4452500165      2.75E-02
 Inaccurate integrated density:
   Number of electrons =    87
   Numerical integral  =    86.940654862321
   Relative error      =    -0.0682128019 %
 Inaccurate integrated density:
   Number of electrons =    87
   Numerical integral  =    86.942359338793
   Relative error      =    -0.0662536336 %
Recomputing EXC -1109.956700 -1110.485273 -1110.445250 
 Inaccurate integrated density:
   Number of electrons =    87
   Numerical integral  =    86.942389716543
   Relative error      =    -0.0662187166 %
   35   -1110.4912458927      2.76E-02
 Inaccurate integrated density:
   Number of electrons =    87
   Numerical integral  =    86.939561377806
   Relative error      =    -0.0694696807 %
 Inaccurate integrated density:
   Number of electrons =    87
   Numerical integral  =    86.942342451367
   Relative error      =    -0.0662730444 %
Recomputing EXC -1109.913890 -1110.529780 -1110.491246 
 Inaccurate integrated density:
   Number of electrons =    87
   Numerical integral  =    86.942388759210
   Relative error      =    -0.0662198170 %
Recomputing EXC -1110.479686 -1110.492025 -1110.491246 
 Inaccurate integrated density:
   Number of electrons =    87
   Numerical integral  =    86.942389697088
   Relative error      =    -0.0662187390 %
Recomputing EXC -1110.491011 -1110.491262 -1110.491246 
   36   -1110.4910109817      2.76E-02
 Inaccurate integrated density:
   Number of electrons =    87
   Numerical integral  =    86.939561403055
   Relative error      =    -0.0694696517 %
 Inaccurate integrated density:
   Number of electrons =    87
   Numerical integral  =    86.942342434626
   Relative error      =    -0.0662730636 %
Recomputing EXC -1109.973420 -1110.529541 -1110.491011 
 Inaccurate integrated density:
   Number of electrons =    87
   Numerical integral  =    86.942388642684
   Relative error      =    -0.0662199509 %
   37   -1110.5374519714      2.77E-02
 Inaccurate integrated density:
   Number of electrons =    87
   Numerical integral  =    86.937765767180
   Relative error      =    -0.0715336009 %
 Inaccurate integrated density:
   Number of electrons =    87
   Numerical integral  =    86.942281483859
   Relative error      =    -0.0663431220 %
Recomputing EXC -1110.040616 -1110.592999 -1110.537452 
 Inaccurate integrated density:
   Number of electrons =    87
   Numerical integral  =    86.942385196892
   Relative error      =    -0.0662239116 %
Recomputing EXC -1110.521961 -1110.539229 -1110.537452 
 Inaccurate integrated density:
   Number of electrons =    87
   Numerical integral  =    86.942388530883
   Relative error      =    -0.0662200794 %
Recomputing EXC -1110.536950 -1110.537510 -1110.537452 
   38   -1110.5369498265      2.77E-02
 Inaccurate integrated density:
   Number of electrons =    87
   Numerical integral  =    86.937765676770
   Relative error      =    -0.0715337049 %
 Inaccurate integrated density:
   Number of electrons =    87
   Numerical integral  =    86.942281381650
   Relative error      =    -0.0663432395 %
Recomputing EXC -1110.101020 -1110.592475 -1110.536950 
 Inaccurate integrated density:
   Number of electrons =    87
   Numerical integral  =    86.942384694631
   Relative error      =    -0.0662244889 %
   39   -1110.5789344529      2.76E-02
 Inaccurate integrated density:
   Number of electrons =    87
   Numerical integral  =    86.937465051202
   Relative error      =    -0.0718792515 %
 Inaccurate integrated density:
   Number of electrons =    87
   Numerical integral  =    86.942246456027
   Relative error      =    -0.0663833839 %
Recomputing EXC -1110.048194 -1110.648886 -1110.578934 
 Inaccurate integrated density:
   Number of electrons =    87
   Numerical integral  =    86.942379591418
   Relative error      =    -0.0662303547 %
Recomputing EXC -1110.559939 -1110.581503 -1110.578934 
 Inaccurate integrated density:
   Number of electrons =    87
   Numerical integral  =    86.942384504563
   Relative error      =    -0.0662247074 %
Recomputing EXC -1110.578228 -1110.579030 -1110.578934 
   40   -1110.5782278104      2.76E-02
 Inaccurate integrated density:
   Number of electrons =    87
   Numerical integral  =    86.937465687632
   Relative error      =    -0.0718785200 %
 Inaccurate integrated density:
   Number of electrons =    87
   Numerical integral  =    86.942246440807
   Relative error      =    -0.0663834014 %
Recomputing EXC -1110.107989 -1110.648077 -1110.578228 
 Inaccurate integrated density:
   Number of electrons =    87
   Numerical integral  =    86.942378900903
   Relative error      =    -0.0662311484 %
   41   -1110.6165731142      2.76E-02
 Inaccurate integrated density:
   Number of electrons =    87
   Numerical integral  =    86.934569348816
   Relative error      =    -0.0752076450 %
 Inaccurate integrated density:
   Number of electrons =    87
   Numerical integral  =    86.942309586398
   Relative error      =    -0.0663108202 %
Recomputing EXC -1109.959369 -1110.639852 -1110.616573 
 Inaccurate integrated density:
   Number of electrons =    87
   Numerical integral  =    86.942378122692
   Relative error      =    -0.0662320429 %
Recomputing EXC -1110.609249 -1110.616834 -1110.616573 
 Inaccurate integrated density:
   Number of electrons =    87
   Numerical integral  =    86.942378892148
   Relative error      =    -0.0662311585 %
Recomputing EXC -1110.616491 -1110.616576 -1110.616573 
   42   -1110.6164906942      2.76E-02
 Inaccurate integrated density:
   Number of electrons =    87
   Numerical integral  =    86.934569204702
   Relative error      =    -0.0752078107 %
 Inaccurate integrated density:
   Number of electrons =    87
   Numerical integral  =    86.942309588868
   Relative error      =    -0.0663108174 %
Recomputing EXC -1110.019432 -1110.639765 -1110.616491 
 Inaccurate integrated density:
   Number of electrons =    87
   Numerical integral  =    86.942378041566
   Relative error      =    -0.0662321361 %
   43   -1110.6676859915      2.78E-02
 Inaccurate integrated density:
   Number of electrons =    87
   Numerical integral  =    86.933648603652
   Relative error      =    -0.0762659728 %
 Inaccurate integrated density:
   Number of electrons =    87
   Numerical integral  =    86.942250135649
   Relative error      =    -0.0663791544 %
Recomputing EXC -1110.030674 -1110.708467 -1110.667686 
 Inaccurate integrated density:
   Number of electrons =    87
   Numerical integral  =    86.942375542018
   Relative error      =    -0.0662350092 %
Recomputing EXC -1110.655434 -1110.668481 -1110.667686 
 Inaccurate integrated density:
   Number of electrons =    87
   Numerical integral  =    86.942377992482
   Relative error      =    -0.0662321925 %
Recomputing EXC -1110.667445 -1110.667702 -1110.667686 
   44   -1110.6674454506      2.78E-02
 Inaccurate integrated density:
   Number of electrons =    87
   Numerical integral  =    86.933648304296
   Relative error      =    -0.0762663169 %
 Inaccurate integrated density:
   Number of electrons =    87
   Numerical integral  =    86.942250088897
   Relative error      =    -0.0663792082 %
Recomputing EXC -1110.091271 -1110.708221 -1110.667445 
 Inaccurate integrated density:
   Number of electrons =    87
   Numerical integral  =    86.942375261793
   Relative error      =    -0.0662353313 %
   45   -1110.7132809902      2.79E-02
 Inaccurate integrated density:
   Number of electrons =    87
   Numerical integral  =    86.931664723593
   Relative error      =    -0.0785462947 %
 Inaccurate integrated density:
   Number of electrons =    87
   Numerical integral  =    86.942163823946
   Relative error      =    -0.0664783633 %
Recomputing EXC -1110.035446 -1110.771298 -1110.713281 
 Inaccurate integrated density:
   Number of electrons =    87
   Numerical integral  =    86.942369895823
   Relative error      =    -0.0662414991 %
Recomputing EXC -1110.696399 -1110.714748 -1110.713281 
 Inaccurate integrated density:
   Number of electrons =    87
   Numerical integral  =    86.942375124835
   Relative error      =    -0.0662354887 %
Recomputing EXC -1110.712850 -1110.713318 -1110.713281 
   46   -1110.7128503186      2.78E-02
 Inaccurate integrated density:
   Number of electrons =    87
   Numerical integral  =    86.931665482940
   Relative error      =    -0.0785454219 %
 Inaccurate integrated density:
   Number of electrons =    87
   Numerical integral  =    86.942163768108
   Relative error      =    -0.0664784275 %
Recomputing EXC -1110.096567 -1110.770841 -1110.712850 
 Inaccurate integrated density:
   Number of electrons =    87
   Numerical integral  =    86.942369313211
   Relative error      =    -0.0662421687 %
   47   -1110.7537991814      2.79E-02
 Inaccurate integrated density:
   Number of electrons =    87
   Numerical integral  =    86.919417805315
   Relative error      =    -0.0926232123 %
 Inaccurate integrated density:
   Number of electrons =    87
   Numerical integral  =    86.919417805283
   Relative error      =    -0.0926232123 %
   48   -1603.9922809898      4.97E+00
 Inaccurate integrated density:
   Number of electrons =    87
   Numerical integral  =    86.953137918221
   Relative error      =    -0.0538644618 %
 Inaccurate integrated density:
   Number of electrons =    87
   Numerical integral  =    86.929972948125
   Relative error      =    -0.0804908642 %
   49   -2202.4679125869      2.52E+00
 Inaccurate integrated density:
   Number of electrons =    87
   Numerical integral  =    86.954713858043
   Relative error      =    -0.0520530367 %
 Inaccurate integrated density:
   Number of electrons =    87
   Numerical integral  =    86.934889990358
   Relative error      =    -0.0748390915 %
   50   -2241.5184946857      1.63E+00 Done RCA. Switching to DIIS
 Inaccurate integrated density:
   Number of electrons =    87
   Numerical integral  =    86.954838087746
   Relative error      =    -0.0519102440 %
   51   -1072.4203795749      4.53E-02
 Inaccurate integrated density:
   Number of electrons =    87
   Numerical integral  =    86.956634477633
   Relative error      =    -0.0498454280 %
   52    -860.4963234316      7.37E-02
 Inaccurate integrated density:
   Number of electrons =    87
   Numerical integral  =    86.956629068508
   Relative error      =    -0.0498516454 %
   53    -782.6462421718      1.12E-01
 Inaccurate integrated density:
   Number of electrons =    87
   Numerical integral  =    86.956640807839
   Relative error      =    -0.0498381519 %
   54    -799.2266536313      1.12E-01
 Inaccurate integrated density:
   Number of electrons =    87
   Numerical integral  =    86.956524776785
   Relative error      =    -0.0499715209 %
   55    -786.4588900643      1.82E-01
 Inaccurate integrated density:
   Number of electrons =    87
   Numerical integral  =    86.956411745263
   Relative error      =    -0.0501014422 %
   56    -768.0287123109      1.94E-01
 Inaccurate integrated density:
   Number of electrons =    87
   Numerical integral  =    86.956366237992
   Relative error      =    -0.0501537494 %
   57    -775.0999265599      2.17E-01
 Inaccurate integrated density:
   Number of electrons =    87
   Numerical integral  =    86.956425842336
   Relative error      =    -0.0500852387 %
   58    -792.7691182300      2.29E-01
 Inaccurate integrated density:
   Number of electrons =    87
   Numerical integral  =    86.956428490696
   Relative error      =    -0.0500821946 %
   59    -796.3514652060      2.28E-01
 Inaccurate integrated density:
   Number of electrons =    87
   Numerical integral  =    86.956431460028
   Relative error      =    -0.0500787816 %
   60    -820.6942275409      2.24E-01
 Inaccurate integrated density:
   Number of electrons =    87
   Numerical integral  =    86.956426743433
   Relative error      =    -0.0500842030 %
   61    -853.6509859168      2.08E-01
 Inaccurate integrated density:
   Number of electrons =    87
   Numerical integral  =    86.954279885783
   Relative error      =    -0.0525518554 %
   62    2933.2750869021      6.44E-01
 Inaccurate integrated density:
   Number of electrons =    87
   Numerical integral  =    86.956760537605
   Relative error      =    -0.0497005315 %
   63   -3302.5742275075      1.63E+00
 Inaccurate integrated density:
   Number of electrons =    87
   Numerical integral  =    86.956852788091
   Relative error      =    -0.0495944964 %
   64   -1578.3248892850      4.61E-01
 Inaccurate integrated density:
   Number of electrons =    87
   Numerical integral  =    86.979312423241
   Relative error      =    -0.0237788239 %
   65   -1079.8450673196      9.02E-02
 Inaccurate integrated density:
   Number of electrons =    87
   Numerical integral  =    86.979033856600
   Relative error      =    -0.0240990154 %
   66   -1085.0987631175      3.11E-02
 Inaccurate integrated density:
   Number of electrons =    87
   Numerical integral  =    86.978714703303
   Relative error      =    -0.0244658583 %
   67   -1081.2005521726      4.14E-02
 Inaccurate integrated density:
   Number of electrons =    87
   Numerical integral  =    86.978856239267
   Relative error      =    -0.0243031733 %
   68   -1088.9472808126      3.50E-02
 Inaccurate integrated density:
   Number of electrons =    87
   Numerical integral  =    86.978471928900
   Relative error      =    -0.0247449093 %
   69   -1090.8495991250      1.87E-02
 Inaccurate integrated density:
   Number of electrons =    87
   Numerical integral  =    86.978310286439
   Relative error      =    -0.0249307052 %
   70   -1087.5389659392      7.52E-02
 Inaccurate integrated density:
   Number of electrons =    87
   Numerical integral  =    86.978338342380
   Relative error      =    -0.0248984570 %
   71   -1090.0413050605      1.96E-02
 Inaccurate integrated density:
   Number of electrons =    87
   Numerical integral  =    86.979791572355
   Relative error      =    -0.0232280778 %
   72   -1090.4251222564      1.87E-02
 Inaccurate integrated density:
   Number of electrons =    87
   Numerical integral  =    86.982452305151
   Relative error      =    -0.0201697642 %
   73   -1023.2379336256      1.89E-01
 Inaccurate integrated density:
   Number of electrons =    87
   Numerical integral  =    86.982781902237
   Relative error      =    -0.0197909170 %
   74   -1094.1521575916      1.70E-02
 Inaccurate integrated density:
   Number of electrons =    87
   Numerical integral  =    86.981628633616
   Relative error      =    -0.0211165131 %
   75   -1084.6415519789      2.26E-02
 Inaccurate integrated density:
   Number of electrons =    87
   Numerical integral  =    86.981300360840
   Relative error      =    -0.0214938381 %
   76   -1097.0406615895      2.60E-02
 Inaccurate integrated density:
   Number of electrons =    87
   Numerical integral  =    86.981395022992
   Relative error      =    -0.0213850310 %
   77   -1098.1293079419      2.61E-02
 Inaccurate integrated density:
   Number of electrons =    87
   Numerical integral  =    86.988342668018
   Relative error      =    -0.0133992322 %
   78   -1102.5987001866      1.13E-02
 Inaccurate integrated density:
   Number of electrons =    87
   Numerical integral  =    86.989880278207
   Relative error      =    -0.0116318641 %
   79   -1103.5346668192      6.71E-03
   80   -1104.5147467347      3.85E-03
   81   -1104.6897486672      1.11E-03
   82   -1104.7466854912      8.27E-04
   83   -1104.8227771913      1.19E-03
   84   -1104.8366872426      4.95E-04
   85   -1104.8399718952      1.44E-04
   86   -1104.8402247956      2.76E-05
   87   -1104.8402570865      7.17E-06
   88   -1104.8402703614      2.82E-06
   89   -1104.8402751159      1.37E-06
   90   -1104.8402768445      8.95E-07
   91   -1104.8402770613      3.59E-07
   92   -1104.8402770735      1.03E-07
   93   -1104.8402770752      2.22E-08
   94   -1104.8402770757      9.47E-09 Convergence criterion met
 ---------------------------------------
 <S^2> = 0.7625
 SCF time:  CPU 78.13 s  wall 70.19 s
 SCF   energy in the final basis set = -1104.8402770757
 Total energy in the final basis set = -1104.8402770757
 
 --------------------------------------------------------------
             Orbital Energies (a.u.) and Symmetries
 --------------------------------------------------------------
 
 Alpha MOs, Unrestricted
 -- Occupied --                  
-88.749 -88.749 -10.063 -10.063 -10.056 -10.056 -10.048 -10.048
  1 B     1 A     2 A     2 B     3 B     3 A     4 A     4 B                  
-10.034 -10.034  -7.808  -7.808  -5.773  -5.773  -5.769  -5.769
  5 B     5 A     6 B     6 A     7 A     7 B     8 B     8 A                  
 -5.766  -5.766  -0.723  -0.701  -0.606  -0.580  -0.571  -0.536
  9 A     9 B    10 A    10 B    11 A    12 A    11 B    12 B                  
 -0.447  -0.414  -0.395  -0.369  -0.363  -0.314  -0.261  -0.253
 13 A    14 A    13 B    14 B    15 A    15 B    16 A    17 A                  
 -0.248  -0.241  -0.238  -0.209  -0.207  -0.195  -0.178  -0.121
 16 B    17 B    18 A    19 A    18 B    20 A    19 B    20 B                  
 -0.107  -0.103  -0.053   0.051
 21 B    21 A    22 A    22 B                                                  
 -- Virtual --                   
  0.093   0.097   0.109   0.115   0.124   0.138   0.142   0.151
 23 A    23 B    24 A    24 B    25 A    26 A    25 B    27 A                  
  0.152   0.161   0.170   0.170   0.175   0.177   0.187   0.199
 28 A    26 B    27 B    29 A    28 B    30 A    29 B    31 A                  
  0.204   0.205   0.206   0.216   0.217   0.224   0.230   0.232
 30 B    31 B    32 A    32 B    33 A    34 A    33 B    35 A                  
  0.233   0.235   0.242   0.247   0.251   0.258   0.260   0.272
 34 B    36 A    37 A    35 B    38 A    36 B    39 A    40 A                  
  0.276   0.278   0.284   0.287   0.291   0.303   0.304   0.307
 37 B    38 B    39 B    41 A    40 B    42 A    41 B    43 A                  
  0.317   0.320   0.332   0.333   0.338   0.339   0.364   0.375
 42 B    44 A    43 B    45 A    44 B    46 A    45 B    47 A                  
  0.378   0.386   0.394   0.402   0.403   0.442   0.443   0.449
 46 B    47 B    48 A    49 A    48 B    50 A    51 A    49 B                  
  0.458   0.460   0.485   0.489   0.516   0.528   0.567   0.591
 52 A    50 B    53 A    51 B    52 B    54 A    53 B    55 A                  
  0.611   0.648   0.678   0.682   0.698   0.708   0.713   0.757
 56 A    54 B    57 A    55 B    56 B    57 B    58 A    59 A                  
  0.762   0.771   0.804   0.817   0.820   0.833   0.839   0.866
 60 A    58 B    61 A    59 B    60 B    62 A    63 A    61 B                  
  0.869   0.872   0.874   0.892   0.905   0.908   0.939   0.942
 64 A    65 A    62 B    63 B    66 A    64 B    67 A    65 B                  
  0.979   0.987   1.011   1.035   1.062   1.087   1.101   1.107
 66 B    68 A    67 B    69 A    68 B    70 A    69 B    70 B                  
  1.110   1.112   1.119   1.126   1.134   1.147   1.158   1.190
 71 A    72 A    71 B    72 B    73 A    73 B    74 A    75 A                  
  1.205   1.212   1.240   1.245   1.261   1.271   1.298   1.317
 76 A    74 B    77 A    75 B    78 A    76 B    77 B    79 A                  
  1.329   1.338   1.392   1.405   1.487   1.507   1.512   1.513
 78 B    80 A    79 B    81 A    80 B    82 A    81 B    83 A                  
  1.523   1.539   1.604   1.654   1.654   1.716   1.743   1.825
 82 B    84 A    83 B    84 B    85 A    86 A    85 B    86 B                  
  1.844   1.873   1.974   1.995   2.036   2.051   2.061   2.088
 87 A    87 B    88 A    89 A    90 A    88 B    89 B    91 A                  
  2.118   2.125   2.164   2.167   2.211   2.221   2.278   2.281
 92 A    90 B    91 B    93 A    94 A    92 B    95 A    93 B                  
  2.314   2.326   2.375   2.409   2.422   2.446   2.514   2.516
 94 B    96 A    95 B    97 A    96 B    98 A    97 B    99 A                  
  2.572   2.598   2.620   2.624   2.655   2.663   2.675   2.696
 98 B   100 A    99 B   101 A   100 B   102 A   101 B   103 A                  
  2.731   2.740   2.744   2.831   2.843   2.871   2.922   2.950
104 A   105 A   102 B   103 B   104 B   106 A   107 A   105 B                  
  3.003   3.077   3.138   3.289   3.368   3.419   3.419   3.553
108 A   106 B   107 B   109 A   108 B   110 A   109 B   111 A                  
  3.581   3.859   3.896   4.104   4.165   4.414   4.459   4.460
110 B   112 A   111 B   113 A   112 B   114 A   113 B   115 A                  
  4.479   4.573   4.687   4.804   4.887
114 B   116 A   115 B   117 A   116 B                                          
 
 Beta MOs, Unrestricted
 -- Occupied --                  
-88.749 -88.749 -10.062 -10.061 -10.052 -10.052 -10.049 -10.049
  1 B     1 A     2 A     2 B     3 B     3 A     4 A     4 B                  
-10.032 -10.032  -7.808  -7.808  -5.772  -5.772  -5.769  -5.769
  5 B     5 A     6 B     6 A     7 A     7 B     8 B     8 A                  
 -5.764  -5.764  -0.720  -0.698  -0.600  -0.576  -0.568  -0.531
  9 A     9 B    10 A    10 B    11 A    12 A    11 B    12 B                  
 -0.440  -0.411  -0.391  -0.366  -0.361  -0.313  -0.259  -0.252
 13 A    14 A    13 B    14 B    15 A    15 B    16 A    17 A                  
 -0.245  -0.235  -0.232  -0.204  -0.199  -0.192  -0.175  -0.106
 16 B    18 A    17 B    18 B    19 A    20 A    19 B    20 B                  
 -0.096  -0.094  -0.035
 21 B    21 A    22 A                                                          
 -- Virtual --                   
  0.093   0.096   0.105   0.108   0.114   0.123   0.142   0.144
 23 A    22 B    23 B    24 A    24 B    25 A    25 B    26 A                  
  0.152   0.157   0.161   0.172   0.173   0.176   0.177   0.189
 27 A    28 A    26 B    29 A    27 B    28 B    30 A    29 B                  
  0.202   0.204   0.206   0.207   0.217   0.217   0.225   0.230
 31 A    30 B    32 A    31 B    33 A    32 B    34 A    33 B                  
  0.233   0.235   0.235   0.243   0.249   0.254   0.260   0.261
 35 A    34 B    36 A    37 A    35 B    38 A    36 B    39 A                  
  0.273   0.277   0.279   0.285   0.290   0.292   0.305   0.305
 40 A    37 B    38 B    39 B    41 A    40 B    41 B    42 A                  
  0.309   0.318   0.320   0.332   0.334   0.339   0.340   0.364
 43 A    42 B    44 A    43 B    45 A    44 B    46 A    45 B                  
  0.375   0.379   0.387   0.394   0.403   0.403   0.443   0.446
 47 A    46 B    47 B    48 A    49 A    48 B    50 A    51 A                  
  0.451   0.459   0.462   0.486   0.489   0.519   0.528   0.570
 49 B    52 A    50 B    53 A    51 B    52 B    54 A    53 B                  
  0.592   0.612   0.650   0.681   0.684   0.700   0.711   0.715
 55 A    56 A    54 B    57 A    55 B    56 B    57 B    58 A                  
  0.758   0.763   0.773   0.814   0.821   0.830   0.839   0.841
 59 A    60 A    58 B    61 A    59 B    60 B    62 A    63 A                  
  0.869   0.872   0.874   0.877   0.896   0.910   0.911   0.941
 61 B    64 A    65 A    62 B    63 B    64 B    66 A    67 A                  
  0.944   0.986   0.994   1.017   1.037   1.063   1.090   1.104
 65 B    66 B    68 A    67 B    69 A    68 B    70 A    69 B                  
  1.108   1.112   1.115   1.121   1.126   1.135   1.148   1.160
 70 B    71 A    72 A    71 B    72 B    73 A    73 B    74 A                  
  1.192   1.208   1.214   1.242   1.248   1.263   1.275   1.301
 75 A    76 A    74 B    77 A    75 B    78 A    76 B    77 B                  
  1.321   1.331   1.340   1.396   1.408   1.489   1.510   1.517
 79 A    78 B    80 A    79 B    81 A    80 B    82 A    81 B                  
  1.518   1.527   1.542   1.606   1.656   1.657   1.722   1.748
 83 A    82 B    84 A    83 B    85 A    84 B    86 A    85 B                  
  1.834   1.854   1.882   1.977   1.997   2.040   2.052   2.063
 86 B    87 A    87 B    88 A    89 A    90 A    88 B    89 B                  
  2.090   2.122   2.130   2.168   2.170   2.215   2.223   2.286
 91 A    92 A    90 B    91 B    93 A    94 A    92 B    95 A                  
  2.288   2.320   2.335   2.382   2.413   2.426   2.449   2.517
 93 B    94 B    96 A    95 B    97 A    96 B    98 A    97 B                  
  2.517   2.577   2.601   2.621   2.627   2.657   2.665   2.679
 99 A    98 B   100 A    99 B   101 A   100 B   102 A   101 B                  
  2.700   2.734   2.744   2.748   2.833   2.845   2.874   2.924
103 A   104 A   105 A   102 B   103 B   104 B   106 A   107 A                  
  2.953   3.005   3.080   3.140   3.290   3.369   3.419   3.419
105 B   108 A   106 B   107 B   109 A   108 B   110 A   109 B                  
  3.555   3.582   3.860   3.897   4.106   4.167   4.419   4.462
111 A   110 B   112 A   111 B   113 A   112 B   114 A   115 A                  
  4.463   4.482   4.579   4.692   4.806   4.890
113 B   114 B   116 A   115 B   117 A   116 B                                  
 --------------------------------------------------------------
 
          Ground-State Mulliken Net Atomic Charges

     Atom                 Charge (a.u.)    Spin (a.u.)
  --------------------------------------------------------
      1 S                    -0.283108       0.116814
      2 C                    -0.105807       0.237660
      3 C                    -0.297509      -0.072385
      4 C                     0.115334       0.220282
      5 C                    -0.235888       0.013383
      6 H                     0.087232      -0.005125
      7 C                    -0.235888       0.013383
      8 S                    -0.283108       0.116814
      9 C                     0.115334       0.220282
     10 C                    -0.105807       0.237660
     11 C                    -0.297509      -0.072385
     12 H                     0.074069       0.003526
     13 H                     0.145676      -0.014154
     14 H                     0.074069       0.003526
     15 H                     0.145676      -0.014154
     16 H                     0.087232      -0.005125
  --------------------------------------------------------
  Sum of atomic charges =    -1.000000
  Sum of spin   charges =     1.000000

 -----------------------------------------------------------------
                    Cartesian Multipole Moments
 -----------------------------------------------------------------
    Charge (ESU x 10^10)
                -4.8032
    Dipole Moment (Debye)
         X       0.0000      Y       0.0000      Z      -0.3876
       Tot       0.3876
    Quadrupole Moments (Debye-Ang)
        XX     -99.2580     XY       0.2868     YY     -86.9969
        XZ      -0.0000     YZ      -0.0000     ZZ     -83.5926
    Octopole Moments (Debye-Ang^2)
       XXX       0.0000    XXY       0.0000    XYY       0.0000
       YYY       0.0000    XXZ       9.2098    XYZ      -4.2913
       YYZ       4.0853    XZZ       0.0000    YZZ      -0.0000
       ZZZ       1.1942
    Hexadecapole Moments (Debye-Ang^3)
      XXXX   -2469.7364   XXXY      -1.0622   XXYY    -488.1651
      XYYY      -7.3068   YYYY    -186.5264   XXXZ      -0.0000
      XXYZ       0.0000   XYYZ       0.0000   YYYZ       0.0000
      XXZZ    -502.3556   XYZZ       3.0686   YYZZ    -150.6991
      XZZZ       0.0000   YZZZ       0.0000   ZZZZ    -651.6986
 -----------------------------------------------------------------
 Calculating analytic gradient of the SCF energy
 Gradient of SCF Energy
            1           2           3           4           5           6
    1  -0.0028829   0.0003458  -0.0001150   0.0008992  -0.0034622   0.0005235
    2  -0.0020034  -0.0000604   0.0030430   0.0042424  -0.0019272  -0.0015413
    3  -0.0003479  -0.0019042   0.0018277   0.0008213   0.0002011  -0.0004500
            7           8           9          10          11          12
    1   0.0034622   0.0028829  -0.0008992  -0.0003458   0.0001150   0.0000120
    2   0.0019272   0.0020034  -0.0042424   0.0000604  -0.0030430   0.0002029
    3   0.0002011  -0.0003479   0.0008213  -0.0019042   0.0018277   0.0000971
           13          14          15          16
    1  -0.0000826  -0.0000120   0.0000826  -0.0005235
    2  -0.0016821  -0.0002029   0.0016821   0.0015413
    3  -0.0002452   0.0000971  -0.0002452  -0.0004500
 Max gradient component =       4.242E-03
 RMS gradient           =       1.706E-03
 Gradient time:  CPU 1.87 s  wall 1.88 s
 Geometry Optimization Parameters
   NAtoms,    NIC,     NZ,  NCons,   NDum,   NFix, NCnnct, MaxDiis
       16     111       0       1       0       0       0       0


** CONSTRAINED OPTIMIZATION IN DELOCALIZED INTERNAL COORDINATES **
   Searching for a Minimum

   Optimization Cycle:   1

                       Coordinates (Angstroms)
     ATOM                X               Y               Z
      1  S         1.6366818665   -0.3415640769    1.1292269473
      2  C         3.1763764462   -0.0663270280    0.3052000222
      3  C         2.9657765411    0.2802873513   -1.0164233978
      4  C         1.6084105414    0.3353926358   -1.3995339415
      5  C         0.7037633402    0.0245068937   -0.3574924328
      6  H         1.2728473936    0.5925242010   -2.3985762985
      7  C        -0.7037633402   -0.0245068937   -0.3574924328
      8  S        -1.6366818665    0.3415640769    1.1292269473
      9  C        -1.6084105414   -0.3353926358   -1.3995339415
     10  C        -3.1763764462    0.0663270280    0.3052000222
     11  C        -2.9657765411   -0.2802873513   -1.0164233978
     12  H        -3.7836653138   -0.4922986826   -1.7011661300
     13  H         4.1082561392   -0.1791748486    0.8416095352
     14  H         3.7836653138    0.4922986826   -1.7011661300
     15  H        -4.1082561392    0.1791748486    0.8416095352
     16  H        -1.2728473936   -0.5925242010   -2.3985762985
   Point Group: c2    Number of degrees of freedom:    22


   Energy is  -1104.840277076

              Constraints and their Current Values
                                        Value     Constraint
   Dihedral:        4   5   7   9       30.000       30.000

 Attempting to Generate Delocalized Internal Coordinates

 21 Hessian modes will be used to form the next step
  Hessian Eigenvalues:
     0.045000    0.045000    0.045000    0.045000    0.045000    0.045000
     0.160000    0.160000    0.160000    0.221184    0.237470    0.250000
     0.264210    0.283931    0.350974    0.354198    0.358566    0.414224
     0.425056    0.442595    0.471396

 Minimum Search - Taking Simple RFO Step
 Searching for Lamda that Minimizes Along All modes
 Value Taken    Lamda =  -0.00165754
 Step Taken.  Stepsize is  0.163370

                             Maximum     Tolerance    Cnvgd?
         Gradient           0.008812      0.000300      NO
         Displacement       0.123238      0.001200      NO
         Energy change     *********      0.000001      NO


 New Cartesian Coordinates Obtained by Inverse Iteration

 Displacement from previous Coordinates is:  0.325787
 ----------------------------------------------------------------
             Standard Nuclear Orientation (Angstroms)
    I     Atom           X                Y                Z
 ----------------------------------------------------------------
    1      S       1.6649207946    -0.3128748591     1.1497587465
    2      C       3.1916229938    -0.0500265366     0.3003425389
    3      C       2.9612827119     0.2458328514    -1.0314625069
    4      C       1.5977267013     0.3031712296    -1.3923816004
    5      C       0.7069868292     0.0088143759    -0.3353551087
    6      H       1.2448585585     0.5571870120    -2.3864272598
    7      C      -0.7069868292    -0.0088143759    -0.3353551087
    8      S      -1.6649207946     0.3128748591     1.1497587465
    9      C      -1.5977267013    -0.3031712296    -1.3923816004
   10      C      -3.1916229938     0.0500265366     0.3003425389
   11      C      -2.9612827119    -0.2458328514    -1.0314625069
   12      H      -3.7679519484    -0.4498634255    -1.7320165525
   13      H       4.1310723381    -0.1236089030     0.8303860470
   14      H       3.7679519484     0.4498634255    -1.7320165525
   15      H      -4.1310723381     0.1236089030     0.8303860470
   16      H      -1.2448585585    -0.5571870120    -2.3864272598
 ----------------------------------------------------------------
 Molecular Point Group                 C2    NOp =  2
 Largest Abelian Subgroup              C2    NOp =  2
 Nuclear Repulsion Energy =   625.6207540595 hartrees
 There are       44 alpha and       43 beta electrons
 Applying Cartesian multipole field
    Component          Value
    ---------          -----
     (2,0,0)        1.00000E-11
     (0,2,0)        2.00000E-11
     (0,0,2)       -3.00000E-11
 Nucleus-field energy     =     0.0000000047 hartrees
 Requested basis set is 6-31++G(d,p)
 There are 76 shells and 234 basis functions
 A cutoff of  1.0D-12 yielded   2525 shell pairs
 There are     24863 function pairs
 Smallest overlap matrix eigenvalue = 1.01E-06
 No. of orbitals has changed due to linear dependencies.  Generating new SCF guess.
 Guess from superposition of atomic densities
 Warning:  Energy on first SCF cycle will be non-variational
 An unrestricted hybrid HF-DFT SCF calculation will be
 performed using Relaxed Constraint Minimization + Pulay DIIS
 Exchange:     0.2000 Hartree-Fock + 0.0800 Slater + 0.7200 B88
 Correlation:  0.1900 VWN1RPA + 0.8100 LYP
 Using SG-1 standard quadrature grid
 SCF converges when DIIS error is below 1.0E-08
 Geometry optimization detected.  Setting ReadMinima to 0
 Setting SaveMinima to 0
 Inaccurate integrated density:
   Number of electrons =    87
   Numerical integral  =    85.999884543214
   Relative error      =    -1.1495579963 %
 Inaccurate integrated density:
   Number of electrons =    87
   Numerical integral  =    85.999884543214
   Relative error      =    -1.1495579963 %
 ---------------------------------------
  Cycle       Energy         DIIS Error
 ---------------------------------------
    1   -1106.9849130597      4.27E-02
    2   -1104.6002869321      5.30E-03
    3   -1104.6849427478      1.79E-03
    4   -1104.8132151401      1.65E-03
    5   -1104.8232671908      3.70E-04 Done RCA. Switching to DIIS
    6   -1104.8401132831      4.03E-04
    7   -1104.8414220174      5.60E-05
    8   -1104.8414634944      2.48E-05
    9   -1104.8414779734      5.64E-06
   10   -1104.8414846355      4.68E-06
   11   -1104.8414868233      1.73E-06
   12   -1104.8414878300      1.11E-06
   13   -1104.8414884041      4.82E-07
   14   -1104.8414884307      2.59E-07
   15   -1104.8414884332      9.98E-08
   16   -1104.8414884335      4.44E-08
   17   -1104.8414884336      1.36E-08
   18   -1104.8414884336      4.79E-09 Convergence criterion met
 ---------------------------------------
 <S^2> = 0.7626
 SCF time:  CPU 13.37 s  wall 11.97 s
 SCF   energy in the final basis set = -1104.8414884336
 Total energy in the final basis set = -1104.8414884336
 
 --------------------------------------------------------------
             Orbital Energies (a.u.) and Symmetries
 --------------------------------------------------------------
 
 Alpha MOs, Unrestricted
 -- Occupied --                  
-88.750 -88.750 -10.065 -10.064 -10.056 -10.056 -10.048 -10.048
  1 B     1 A     2 A     2 B     3 B     3 A     4 B     4 A                  
-10.034 -10.034  -7.809  -7.809  -5.773  -5.773  -5.770  -5.770
  5 B     5 A     6 B     6 A     7 B     7 A     8 B     8 A                  
 -5.766  -5.766  -0.723  -0.702  -0.605  -0.581  -0.571  -0.536
  9 A     9 B    10 A    10 B    11 A    12 A    11 B    12 B                  
 -0.447  -0.414  -0.395  -0.369  -0.363  -0.315  -0.261  -0.253
 13 A    14 A    13 B    14 B    15 A    15 B    16 A    17 A                  
 -0.247  -0.240  -0.238  -0.209  -0.208  -0.195  -0.178  -0.121
 16 B    17 B    18 A    19 A    18 B    20 A    19 B    20 B                  
 -0.108  -0.103  -0.054   0.051
 21 B    21 A    22 A    22 B                                                  
 -- Virtual --                   
  0.093   0.096   0.109   0.114   0.124   0.139   0.143   0.150
 23 A    23 B    24 A    24 B    25 A    26 A    25 B    27 A                  
  0.151   0.159   0.169   0.170   0.175   0.177   0.182   0.200
 28 A    26 B    29 A    27 B    28 B    30 A    29 B    31 A                  
  0.202   0.203   0.206   0.211   0.217   0.225   0.228   0.231
 30 B    31 B    32 A    32 B    33 A    34 A    33 B    35 A                  
  0.233   0.234   0.243   0.248   0.252   0.258   0.258   0.270
 34 B    36 A    37 A    35 B    38 A    36 B    39 A    40 A                  
  0.276   0.278   0.284   0.286   0.291   0.299   0.303   0.309
 37 B    38 B    39 B    41 A    40 B    41 B    42 A    43 A                  
  0.312   0.320   0.330   0.333   0.336   0.337   0.345   0.364
 42 B    44 A    45 A    43 B    46 A    44 B    45 B    46 B                  
  0.371   0.390   0.394   0.397   0.402   0.441   0.443   0.449
 47 A    47 B    48 B    48 A    49 A    50 A    51 A    49 B                  
  0.455   0.457   0.469   0.485   0.496   0.517   0.527   0.583
 50 B    52 A    51 B    53 A    52 B    53 B    54 A    54 B                  
  0.589   0.610   0.648   0.678   0.685   0.699   0.713   0.720
 55 A    56 A    55 B    57 A    56 B    57 B    58 A    58 B                  
  0.757   0.761   0.778   0.804   0.817   0.822   0.828   0.839
 59 A    60 A    59 B    61 A    60 B    61 B    62 A    63 A                  
  0.862   0.868   0.871   0.875   0.888   0.905   0.907   0.939
 62 B    64 A    65 A    63 B    64 B    66 A    65 B    67 A                  
  0.950   0.977   0.986   1.008   1.034   1.061   1.085   1.101
 66 B    67 B    68 A    68 B    69 A    69 B    70 A    70 B                  
  1.106   1.110   1.113   1.129   1.133   1.147   1.155   1.161
 71 B    71 A    72 A    72 B    73 A    73 B    74 A    74 B                  
  1.186   1.204   1.215   1.239   1.248   1.259   1.271   1.303
 75 A    76 A    75 B    77 A    76 B    78 A    77 B    78 B                  
  1.316   1.337   1.379   1.402   1.405   1.487   1.504   1.513
 79 A    80 A    79 B    81 A    80 B    81 B    82 A    83 A                  
  1.516   1.522   1.544   1.609   1.648   1.649   1.713   1.747
 82 B    83 B    84 A    84 B    85 B    85 A    86 A    86 B                  
  1.817   1.844   1.865   1.971   1.999   2.034   2.055   2.066
 87 B    87 A    88 B    88 A    89 A    90 A    89 B    90 B                  
  2.087   2.124   2.125   2.162   2.163   2.214   2.218   2.277
 91 A    92 A    91 B    93 A    92 B    94 A    93 B    95 A                  
  2.285   2.313   2.316   2.377   2.406   2.425   2.447   2.516
 94 B    95 B    96 A    96 B    97 A    97 B    98 A    98 B                  
  2.516   2.571   2.599   2.616   2.623   2.659   2.668   2.673
 99 A    99 B   100 A   101 A   100 B   101 B   102 A   102 B                  
  2.692   2.728   2.739   2.749   2.834   2.838   2.871   2.919
103 A   104 A   105 A   103 B   104 B   105 B   106 A   107 A                  
  2.953   3.004   3.071   3.134   3.289   3.365   3.418   3.419
106 B   108 A   107 B   108 B   109 A   109 B   110 A   110 B                  
  3.552   3.580   3.858   3.896   4.102   4.164   4.415   4.458
111 A   111 B   112 A   112 B   113 A   113 B   114 A   115 A                  
  4.480   4.495   4.570   4.692   4.802   4.883
114 B   115 B   116 A   116 B   117 A   117 B                                  
 
 Beta MOs, Unrestricted
 -- Occupied --                  
-88.750 -88.750 -10.063 -10.062 -10.053 -10.053 -10.049 -10.049
  1 B     1 A     2 A     2 B     3 B     3 A     4 B     4 A                  
-10.032 -10.032  -7.809  -7.809  -5.773  -5.773  -5.770  -5.770
  5 B     5 A     6 B     6 A     7 B     7 A     8 B     8 A                  
 -5.765  -5.765  -0.719  -0.699  -0.600  -0.577  -0.568  -0.531
  9 A     9 B    10 A    10 B    11 A    12 A    11 B    12 B                  
 -0.440  -0.411  -0.391  -0.366  -0.361  -0.313  -0.259  -0.252
 13 A    14 A    13 B    14 B    15 A    15 B    16 A    17 A                  
 -0.245  -0.235  -0.231  -0.206  -0.200  -0.192  -0.175  -0.106
 16 B    18 A    17 B    18 B    19 A    20 A    19 B    20 B                  
 -0.098  -0.094  -0.035
 21 B    21 A    22 A                                                          
 -- Virtual --                   
  0.093   0.096   0.104   0.108   0.114   0.124   0.143   0.145
 23 A    22 B    23 B    24 A    24 B    25 A    25 B    26 A                  
  0.151   0.157   0.159   0.171   0.173   0.176   0.177   0.184
 27 A    28 A    26 B    29 A    27 B    28 B    30 A    29 B                  
  0.202   0.203   0.205   0.207   0.213   0.217   0.226   0.228
 30 B    31 A    31 B    32 A    32 B    33 A    34 A    33 B                  
  0.233   0.234   0.234   0.243   0.249   0.254   0.259   0.260
 35 A    34 B    36 A    37 A    35 B    38 A    36 B    39 A                  
  0.271   0.277   0.279   0.285   0.289   0.291   0.299   0.306
 40 A    37 B    38 B    39 B    41 A    40 B    41 B    42 A                  
  0.310   0.313   0.320   0.331   0.334   0.337   0.338   0.345
 43 A    42 B    44 A    45 A    43 B    46 A    44 B    45 B                  
  0.364   0.372   0.390   0.394   0.397   0.402   0.443   0.446
 46 B    47 A    47 B    48 B    48 A    49 A    50 A    51 A                  
  0.451   0.456   0.458   0.470   0.486   0.496   0.520   0.527
 49 B    50 B    52 A    51 B    53 A    52 B    53 B    54 A                  
  0.585   0.590   0.611   0.651   0.681   0.687   0.701   0.715
 54 B    55 A    56 A    55 B    57 A    56 B    57 B    58 A                  
  0.723   0.758   0.763   0.780   0.814   0.822   0.832   0.834
 58 B    59 A    60 A    59 B    61 A    60 B    61 B    62 A                  
  0.841   0.865   0.870   0.873   0.878   0.892   0.909   0.911
 63 A    62 B    64 A    65 A    63 B    64 B    65 B    66 A                  
  0.941   0.953   0.984   0.994   1.014   1.035   1.063   1.088
 67 A    66 B    67 B    68 A    68 B    69 A    69 B    70 A                  
  1.104   1.107   1.111   1.117   1.130   1.134   1.149   1.157
 70 B    71 B    71 A    72 A    72 B    73 A    73 B    74 A                  
  1.162   1.188   1.207   1.217   1.241   1.252   1.262   1.275
 74 B    75 A    76 A    75 B    77 A    76 B    78 A    77 B                  
  1.306   1.320   1.340   1.382   1.405   1.407   1.489   1.509
 78 B    79 A    80 A    79 B    81 A    80 B    81 B    82 A                  
  1.517   1.521   1.525   1.547   1.611   1.651   1.651   1.719
 83 A    82 B    83 B    84 A    84 B    85 A    85 B    86 A                  
  1.751   1.824   1.854   1.874   1.974   2.001   2.038   2.056
 86 B    87 B    87 A    88 B    88 A    89 A    90 A    89 B                  
  2.068   2.089   2.129   2.130   2.165   2.167   2.218   2.220
 90 B    91 A    92 A    91 B    93 A    92 B    94 A    93 B                  
  2.285   2.293   2.319   2.325   2.385   2.410   2.429   2.451
 95 A    94 B    95 B    96 A    96 B    97 A    97 B    98 A                  
  2.517   2.518   2.576   2.602   2.620   2.624   2.661   2.671
 99 A    98 B    99 B   100 A   101 A   100 B   101 B   102 A                  
  2.677   2.697   2.731   2.743   2.753   2.836   2.840   2.875
102 B   103 A   104 A   105 A   103 B   104 B   105 B   106 A                  
  2.921   2.956   3.006   3.074   3.135   3.290   3.366   3.418
107 A   106 B   108 A   107 B   108 B   109 A   109 B   110 A                  
  3.419   3.553   3.582   3.859   3.897   4.104   4.166   4.419
110 B   111 A   111 B   112 A   112 B   113 A   113 B   114 A                  
  4.460   4.484   4.498   4.576   4.697   4.804   4.886
115 A   114 B   115 B   116 A   116 B   117 A   117 B                          
 --------------------------------------------------------------
 
          Ground-State Mulliken Net Atomic Charges

     Atom                 Charge (a.u.)    Spin (a.u.)
  --------------------------------------------------------
      1 S                    -0.263106       0.115260
      2 C                    -0.161730       0.238014
      3 C                    -0.342659      -0.068169
      4 C                     0.080539       0.214018
      5 C                    -0.109884       0.016933
      6 H                     0.088615      -0.005747
      7 C                    -0.109885       0.016934
      8 S                    -0.263105       0.115260
      9 C                     0.080539       0.214017
     10 C                    -0.161731       0.238013
     11 C                    -0.342658      -0.068169
     12 H                     0.069389       0.003659
     13 H                     0.138835      -0.013968
     14 H                     0.069389       0.003659
     15 H                     0.138835      -0.013968
     16 H                     0.088615      -0.005746
  --------------------------------------------------------
  Sum of atomic charges =    -1.000000
  Sum of spin   charges =     1.000000

 -----------------------------------------------------------------
                    Cartesian Multipole Moments
 -----------------------------------------------------------------
    Charge (ESU x 10^10)
                -4.8032
    Dipole Moment (Debye)
         X       0.0000      Y       0.0000      Z      -0.4329
       Tot       0.4329
    Quadrupole Moments (Debye-Ang)
        XX     -99.4520     XY       0.7157     YY     -87.0004
        XZ      -0.0000     YZ      -0.0000     ZZ     -83.6666
    Octopole Moments (Debye-Ang^2)
       XXX       0.0001    XXY      -0.0000    XYY       0.0000
       YYY       0.0000    XXZ       8.5674    XYZ      -3.7706
       YYZ       3.3370    XZZ       0.0000    YZZ       0.0000
       ZZZ      -1.0253
    Hexadecapole Moments (Debye-Ang^3)
      XXXX   -2488.3773   XXXY       7.3389   XXYY    -491.8510
      XYYY      -4.9995   YYYY    -178.0267   XXXZ      -0.0000
      XXYZ      -0.0001   XYYZ      -0.0000   YYYZ      -0.0001
      XXZZ    -505.9722   XYZZ       4.4055   YYZZ    -151.5920
      XZZZ       0.0001   YZZZ      -0.0001   ZZZZ    -659.6473
 -----------------------------------------------------------------
 Calculating analytic gradient of the SCF energy
 Gradient of SCF Energy
            1           2           3           4           5           6
    1  -0.0001705   0.0005263   0.0001551  -0.0001571   0.0004339   0.0000888
    2  -0.0017178   0.0007711  -0.0000116   0.0052374  -0.0048659  -0.0008803
    3  -0.0001168  -0.0001958   0.0006775   0.0017670  -0.0017438  -0.0002594
            7           8           9          10          11          12
    1  -0.0004339   0.0001705   0.0001570  -0.0005263  -0.0001551  -0.0000298
    2   0.0048659   0.0017178  -0.0052374  -0.0007711   0.0000116  -0.0000342
    3  -0.0017439  -0.0001168   0.0017670  -0.0001958   0.0006775   0.0000049
           13          14          15          16
    1   0.0001097   0.0000298  -0.0001097  -0.0000888
    2  -0.0008491   0.0000342   0.0008491   0.0008803
    3  -0.0001335   0.0000049  -0.0001335  -0.0002594
 Max gradient component =       5.237E-03
 RMS gradient           =       1.626E-03
 Gradient time:  CPU 1.86 s  wall 1.86 s
 Geometry Optimization Parameters
   NAtoms,    NIC,     NZ,  NCons,   NDum,   NFix, NCnnct, MaxDiis
       16     111       0       1       0       0       0       0

 Cartesian Hessian Update
 Hessian Updated using BFGS Update
[...]
      4 C                     0.085350       0.217393
      5 C                    -0.093153       0.017547
      6 H                     0.085871      -0.007531
      7 C                    -0.093153       0.017547
      8 S                    -0.279897       0.111564
      9 C                     0.085350       0.217393
     10 C                    -0.149779       0.239590
     11 C                    -0.361569      -0.068042
     12 H                     0.069307       0.003900
     13 H                     0.143870      -0.014420
     14 H                     0.069307       0.003900
     15 H                     0.143870      -0.014420
     16 H                     0.085871      -0.007531
  --------------------------------------------------------
  Sum of atomic charges =    -1.000000
  Sum of spin   charges =     1.000000

 -----------------------------------------------------------------
                    Cartesian Multipole Moments
 -----------------------------------------------------------------
    Charge (ESU x 10^10)
                -4.8032
    Dipole Moment (Debye)
         X       0.0000      Y      -0.0000      Z      -0.4164
       Tot       0.4164
    Quadrupole Moments (Debye-Ang)
        XX     -99.4497     XY       1.1727     YY     -87.0127
        XZ       0.0000     YZ       0.0000     ZZ     -83.6026
    Octopole Moments (Debye-Ang^2)
       XXX      -0.0000    XXY       0.0000    XYY      -0.0000
       YYY      -0.0000    XXZ       8.3724    XYZ      -2.9760
       YYZ       2.9414    XZZ      -0.0000    YZZ      -0.0000
       ZZZ      -1.9146
    Hexadecapole Moments (Debye-Ang^3)
      XXXX   -2483.2835   XXXY      11.0291   XXYY    -489.7777
      XYYY      -9.9654   YYYY    -163.2505   XXXZ       0.0000
      XXYZ      -0.0000   XYYZ       0.0000   YYYZ       0.0000
      XXZZ    -504.3587   XYZZ       3.7107   YYZZ    -153.4892
      XZZZ       0.0000   YZZZ       0.0000   ZZZZ    -669.0333
 -----------------------------------------------------------------
 Calculating analytic gradient of the SCF energy
 Gradient of SCF Energy
            1           2           3           4           5           6
    1   0.0000167   0.0000026   0.0000061   0.0001482  -0.0003685  -0.0000001
    2  -0.0000344  -0.0000598   0.0000930   0.0048559  -0.0108877   0.0000014
    3   0.0000220  -0.0000107   0.0000138   0.0013327  -0.0013471  -0.0000026
            7           8           9          10          11          12
    1   0.0003685  -0.0000167  -0.0001482  -0.0000026  -0.0000061  -0.0000005
    2   0.0108877   0.0000344  -0.0048559   0.0000598  -0.0000930   0.0000636
    3  -0.0013471   0.0000220   0.0013327  -0.0000107   0.0000138  -0.0000155
           13          14          15          16
    1  -0.0000041   0.0000005   0.0000041   0.0000001
    2   0.0000473  -0.0000636  -0.0000473  -0.0000014
    3   0.0000074  -0.0000155   0.0000074  -0.0000026
 Max gradient component =       1.089E-02
 RMS gradient           =       2.466E-03
 Gradient time:  CPU 1.91 s  wall 1.85 s
 Geometry Optimization Parameters
   NAtoms,    NIC,     NZ,  NCons,   NDum,   NFix, NCnnct, MaxDiis
       16     111       0       1       0       0       0       0

 Cartesian Hessian Update
 Hessian Updated using BFGS Update


** CONSTRAINED OPTIMIZATION IN DELOCALIZED INTERNAL COORDINATES **
   Searching for a Minimum

   Optimization Cycle:   9

                       Coordinates (Angstroms)
     ATOM                X               Y               Z
      1  S         1.6579307915   -0.2386557455    1.1671964345
      2  C         3.1863613958   -0.0171377246    0.3105323609
      3  C         2.9602301341    0.2098604301   -1.0360351861
      4  C         1.5990888010    0.2316033803   -1.4050993403
      5  C         0.7062462527   -0.0241595114   -0.3372175866
      6  H         1.2472998322    0.4576110660   -2.4061644355
      7  C        -0.7062462527    0.0241595114   -0.3372175866
      8  S        -1.6579307915    0.2386557455    1.1671964345
      9  C        -1.5990888010   -0.2316033803   -1.4050993403
     10  C        -3.1863613958    0.0171377246    0.3105323609
     11  C        -2.9602301341   -0.2098604301   -1.0360351861
     12  H        -3.7686000552   -0.3852662314   -1.7422476895
     13  H         4.1219482905   -0.0309284046    0.8518797467
     14  H         3.7686000552    0.3852662314   -1.7422476895
     15  H        -4.1219482905    0.0309284046    0.8518797467
     16  H        -1.2472998322   -0.4576110660   -2.4061644355
   Point Group: c2    Number of degrees of freedom:    22


   Energy is  -1104.842124504

              Constraints and their Current Values
                                        Value     Constraint
   Dihedral:        4   5   7   9       30.000       30.000
 Hessian Updated using BFGS Update

 21 Hessian modes will be used to form the next step
  Hessian Eigenvalues:
     0.007492    0.013530    0.029766    0.045008    0.045392    0.052167
     0.159905    0.159993    0.160304    0.223048    0.243839    0.253631
     0.278462    0.284948    0.351085    0.354317    0.358932    0.418594
     0.430251    0.466261    0.472308

 Minimum Search - Taking Simple RFO Step
 Searching for Lamda that Minimizes Along All modes
 Value Taken    Lamda =   0.00000000
 Step Taken.  Stepsize is  0.005817

                             Maximum     Tolerance    Cnvgd?
         Gradient           0.000055      0.000300     YES
         Displacement       0.003971      0.001200      NO
         Energy change     -0.000001      0.000001     YES

 Final energy is   -1104.84212450360     


 ******************************
 **  OPTIMIZATION CONVERGED  **
 ******************************

                       Coordinates (Angstroms)
     ATOM                X               Y               Z
      1  S         1.6579307915   -0.2386557455    1.1671964345
      2  C         3.1863613958   -0.0171377246    0.3105323609
      3  C         2.9602301341    0.2098604301   -1.0360351861
      4  C         1.5990888010    0.2316033803   -1.4050993403
      5  C         0.7062462527   -0.0241595114   -0.3372175866
      6  H         1.2472998322    0.4576110660   -2.4061644355
      7  C        -0.7062462527    0.0241595114   -0.3372175866
      8  S        -1.6579307915    0.2386557455    1.1671964345
      9  C        -1.5990888010   -0.2316033803   -1.4050993403
     10  C        -3.1863613958    0.0171377246    0.3105323609
     11  C        -2.9602301341   -0.2098604301   -1.0360351861
     12  H        -3.7686000552   -0.3852662314   -1.7422476895
     13  H         4.1219482905   -0.0309284046    0.8518797467
     14  H         3.7686000552    0.3852662314   -1.7422476895
     15  H        -4.1219482905    0.0309284046    0.8518797467
     16  H        -1.2472998322   -0.4576110660   -2.4061644355

Z-matrix Print:
$molecule
-1 2
S 
C  1 1.766081
H  2 1.081004 1 120.298517
C  2 1.384163 1 110.552973 3 177.672976 0
H  4 1.087642 2 122.459004 1 -179.163697 0
C  4 1.410456 2 114.503088 1 -0.853353 0
H  6 1.084881 4 123.889046 2 -176.051394 0
C  6 1.415258 4 114.116179 2 1.849884 0
C  8 1.413319 6 128.632445 4 -174.674642 0
C  9 1.415258 8 128.632445 6 -30.000013 0
H  10 1.084881 9 121.960446 8 3.271912 0
C  10 1.410456 9 114.116179 8 -174.674642 0
H  12 1.087642 10 123.015094 9 -179.850350 0
C  12 1.384163 10 114.503088 9 1.849884 0
H  14 1.081004 12 129.099272 10 176.557519 0
S  14 1.766081 12 110.552973 10 -0.853353 0
$end

 
 --------------------------------------------------------------
             Orbital Energies (a.u.) and Symmetries
 --------------------------------------------------------------
 
 Alpha MOs, Unrestricted
 -- Occupied --                  
-88.750 -88.750 -10.065 -10.064 -10.056 -10.056 -10.048 -10.048
  1 B     1 A     2 A     2 B     3 B     3 A     4 B     4 A                  
-10.033 -10.033  -7.809  -7.809  -5.774  -5.774  -5.770  -5.770
  5 B     5 A     6 B     6 A     7 B     7 A     8 B     8 A                  
 -5.767  -5.767  -0.724  -0.702  -0.605  -0.581  -0.571  -0.536
  9 A     9 B    10 A    10 B    11 A    12 A    11 B    12 B                  
 -0.447  -0.414  -0.394  -0.369  -0.363  -0.315  -0.262  -0.253
 13 A    14 A    13 B    14 B    15 A    15 B    16 A    17 A                  
 -0.246  -0.239  -0.239  -0.209  -0.208  -0.196  -0.177  -0.124
 16 B    17 B    18 A    19 A    18 B    20 A    19 B    20 B                  
 -0.109  -0.102  -0.052   0.049
 21 B    21 A    22 A    22 B                                                  
 -- Virtual --                   
  0.093   0.096   0.109   0.115   0.125   0.142   0.144   0.150
 23 A    23 B    24 A    24 B    25 A    26 A    25 B    27 A                  
  0.152   0.159   0.166   0.171   0.175   0.177   0.183   0.199
 28 A    26 B    29 A    27 B    28 B    30 A    29 B    30 B                  
  0.202   0.206   0.207   0.213   0.217   0.227   0.228   0.231
 31 A    31 B    32 A    32 B    33 A    34 A    33 B    35 A                  
  0.234   0.234   0.242   0.249   0.253   0.257   0.260   0.270
 36 A    34 B    37 A    35 B    38 A    39 A    36 B    40 A                  
  0.276   0.280   0.282   0.283   0.294   0.299   0.303   0.312
 37 B    38 B    39 B    41 A    40 B    41 B    42 A    43 A                  
  0.312   0.319   0.328   0.333   0.335   0.338   0.346   0.359
 42 B    44 A    45 A    46 A    43 B    44 B    45 B    46 B                  
  0.366   0.392   0.400   0.401   0.403   0.438   0.442   0.446
 47 A    47 B    48 A    49 A    48 B    50 A    51 A    49 B                  
  0.450   0.456   0.475   0.484   0.491   0.518   0.524   0.581
 50 B    52 A    51 B    53 A    52 B    53 B    54 A    54 B                  
  0.587   0.610   0.646   0.681   0.691   0.703   0.711   0.734
 55 A    56 A    55 B    57 A    56 B    57 B    58 A    58 B                  
  0.753   0.759   0.786   0.805   0.816   0.826   0.829   0.835
 59 A    60 A    59 B    61 A    60 B    62 A    61 B    63 A                  
  0.858   0.866   0.870   0.874   0.882   0.906   0.909   0.938
 62 B    64 A    65 A    63 B    64 B    66 A    65 B    67 A                  
  0.954   0.974   0.986   1.002   1.033   1.064   1.081   1.105
 66 B    67 B    68 A    68 B    69 A    69 B    70 A    70 B                  
  1.105   1.111   1.115   1.131   1.135   1.143   1.155   1.158
 71 A    71 B    72 A    73 A    72 B    73 B    74 A    74 B                  
  1.181   1.197   1.225   1.239   1.249   1.259   1.274   1.306
 75 A    76 A    75 B    77 A    76 B    78 A    77 B    78 B                  
  1.314   1.337   1.367   1.400   1.405   1.497   1.499   1.511
 79 A    80 A    79 B    81 A    80 B    82 A    81 B    83 A                  
  1.514   1.524   1.548   1.593   1.642   1.654   1.720   1.769
 82 B    83 B    84 A    84 B    85 A    85 B    86 A    86 B                  
  1.793   1.845   1.859   1.971   1.999   2.034   2.054   2.068
 87 B    87 A    88 B    88 A    89 A    90 A    89 B    90 B                  
  2.086   2.133   2.143   2.158   2.159   2.211   2.217   2.276
 91 A    91 B    92 A    92 B    93 A    93 B    94 A    95 A                  
  2.289   2.303   2.306   2.379   2.410   2.435   2.444   2.516
 94 B    96 A    95 B    96 B    97 A    97 B    98 A    99 A                  
  2.518   2.572   2.599   2.608   2.624   2.669   2.671   2.672
 98 B    99 B   100 A   101 A   100 B   101 B   102 A   102 B                  
  2.689   2.730   2.744   2.750   2.830   2.837   2.872   2.918
103 A   104 A   105 A   103 B   104 B   105 B   106 A   107 A                  
  2.954   3.004   3.070   3.130   3.289   3.364   3.417   3.419
106 B   108 A   107 B   108 B   109 A   109 B   110 A   110 B                  
  3.551   3.581   3.856   3.897   4.099   4.169   4.413   4.457
111 A   111 B   112 A   112 B   113 A   113 B   114 A   115 A                  
  4.482   4.490   4.570   4.692   4.801   4.881
114 B   115 B   116 A   116 B   117 A   117 B                                  
 
 Beta MOs, Unrestricted
 -- Occupied --                  
-88.750 -88.750 -10.063 -10.062 -10.053 -10.053 -10.049 -10.049
  1 B     1 A     2 A     2 B     3 B     3 A     4 B     4 A                  
-10.031 -10.031  -7.809  -7.809  -5.773  -5.773  -5.770  -5.770
  5 B     5 A     6 B     6 A     7 B     7 A     8 B     8 A                  
 -5.765  -5.765  -0.720  -0.699  -0.600  -0.578  -0.568  -0.531
  9 A     9 B    10 A    10 B    11 A    12 A    11 B    12 B                  
 -0.440  -0.412  -0.391  -0.366  -0.361  -0.313  -0.260  -0.252
 13 A    14 A    13 B    14 B    15 A    15 B    16 A    17 A                  
 -0.244  -0.236  -0.230  -0.206  -0.199  -0.194  -0.174  -0.109
 16 B    18 A    17 B    18 B    19 A    20 A    19 B    20 B                  
 -0.099  -0.094  -0.033
 21 B    21 A    22 A                                                          
 -- Virtual --                   
  0.093   0.096   0.102   0.108   0.114   0.124   0.145   0.146
 23 A    22 B    23 B    24 A    24 B    25 A    25 B    26 A                  
  0.151   0.159   0.159   0.168   0.175   0.176   0.177   0.184
 27 A    26 B    28 A    29 A    27 B    28 B    30 A    29 B                  
  0.199   0.205   0.208   0.208   0.215   0.218   0.228   0.228
 30 B    31 A    32 A    31 B    32 B    33 A    34 A    33 B                  
  0.233   0.234   0.235   0.243   0.250   0.255   0.260   0.261
 35 A    36 A    34 B    37 A    35 B    38 A    39 A    36 B                  
  0.271   0.278   0.281   0.284   0.287   0.294   0.300   0.306
 40 A    37 B    38 B    39 B    41 A    40 B    41 B    42 A                  
  0.312   0.314   0.319   0.328   0.334   0.336   0.339   0.346
 43 A    42 B    44 A    45 A    46 A    43 B    44 B    45 B                  
  0.359   0.366   0.393   0.400   0.401   0.404   0.441   0.444
 46 B    47 A    47 B    48 A    49 A    48 B    50 A    51 A                  
  0.447   0.452   0.457   0.476   0.484   0.492   0.521   0.525
 49 B    50 B    52 A    51 B    53 A    52 B    53 B    54 A                  
  0.583   0.589   0.611   0.649   0.684   0.694   0.704   0.713
 54 B    55 A    56 A    55 B    57 A    56 B    57 B    58 A                  
  0.736   0.754   0.760   0.789   0.815   0.822   0.831   0.837
 58 B    59 A    60 A    59 B    61 A    60 B    62 A    63 A                  
  0.838   0.862   0.868   0.873   0.880   0.882   0.911   0.913
 61 B    62 B    64 A    65 A    63 B    64 B    65 B    66 A                  
  0.940   0.957   0.981   0.993   1.008   1.035   1.065   1.084
 67 A    66 B    67 B    68 A    68 B    69 A    69 B    70 A                  
  1.106   1.108   1.112   1.119   1.133   1.136   1.145   1.157
 71 A    70 B    71 B    72 A    73 A    72 B    73 B    74 A                  
  1.159   1.184   1.200   1.226   1.240   1.252   1.262   1.278
 74 B    75 A    76 A    75 B    77 A    76 B    78 A    77 B                  
  1.309   1.318   1.339   1.370   1.403   1.407   1.501   1.502
 78 B    79 A    80 A    79 B    81 A    80 B    82 A    81 B                  
  1.515   1.517   1.530   1.551   1.595   1.644   1.657   1.725
 83 A    82 B    83 B    84 A    84 B    85 A    85 B    86 A                  
  1.774   1.800   1.856   1.869   1.975   2.001   2.038   2.055
 86 B    87 B    87 A    88 B    88 A    89 A    90 A    89 B                  
  2.069   2.088   2.138   2.147   2.161   2.162   2.213   2.220
 90 B    91 A    91 B    92 A    93 A    92 B    93 B    94 A                  
  2.284   2.296   2.311   2.312   2.386   2.414   2.438   2.448
 95 A    94 B    95 B    96 A    96 B    97 A    97 B    98 A                  
  2.518   2.520   2.577   2.601   2.611   2.625   2.670   2.673
 99 A    98 B    99 B   100 A   101 A   100 B   101 B   102 A                  
  2.676   2.694   2.732   2.749   2.754   2.831   2.840   2.876
102 B   103 A   104 A   105 A   103 B   104 B   105 B   106 A                  
  2.920   2.957   3.006   3.072   3.131   3.290   3.365   3.418
107 A   106 B   108 A   107 B   108 B   109 A   109 B   110 A                  
  3.419   3.552   3.582   3.857   3.898   4.101   4.171   4.417
110 B   111 A   111 B   112 A   112 B   113 A   113 B   114 A                  
  4.459   4.487   4.493   4.576   4.697   4.804   4.884
115 A   114 B   115 B   116 A   116 B   117 A   117 B                          
 --------------------------------------------------------------
 
          Ground-State Mulliken Net Atomic Charges

     Atom                 Charge (a.u.)    Spin (a.u.)
  --------------------------------------------------------
      1 S                    -0.279897       0.111564
      2 C                    -0.149779       0.239590
      3 C                    -0.361569      -0.068042
      4 C                     0.085350       0.217393
      5 C                    -0.093153       0.017547
      6 H                     0.085871      -0.007531
      7 C                    -0.093153       0.017547
      8 S                    -0.279897       0.111564
      9 C                     0.085350       0.217393
     10 C                    -0.149779       0.239590
     11 C                    -0.361569      -0.068042
     12 H                     0.069307       0.003900
     13 H                     0.143870      -0.014420
     14 H                     0.069307       0.003900
     15 H                     0.143870      -0.014420
     16 H                     0.085871      -0.007531
  --------------------------------------------------------
  Sum of atomic charges =    -1.000000
  Sum of spin   charges =     1.000000

 -----------------------------------------------------------------
                    Cartesian Multipole Moments
 -----------------------------------------------------------------
    Charge (ESU x 10^10)
                -4.8032
    Dipole Moment (Debye)
         X       0.0000      Y      -0.0000      Z      -0.4164
       Tot       0.4164
    Quadrupole Moments (Debye-Ang)
        XX     -99.4497     XY       1.1727     YY     -87.0127
        XZ       0.0000     YZ       0.0000     ZZ     -83.6026
    Octopole Moments (Debye-Ang^2)
       XXX      -0.0000    XXY       0.0000    XYY      -0.0000
       YYY      -0.0000    XXZ       8.3724    XYZ      -2.9760
       YYZ       2.9414    XZZ      -0.0000    YZZ      -0.0000
       ZZZ      -1.9146
    Hexadecapole Moments (Debye-Ang^3)
      XXXX   -2483.2835   XXXY      11.0291   XXYY    -489.7777
      XYYY      -9.9654   YYYY    -163.2505   XXXZ       0.0000
      XXYZ      -0.0000   XYYZ       0.0000   YYYZ       0.0000
      XXZZ    -504.3587   XYZZ       3.7107   YYZZ    -153.4892
      XZZZ       0.0000   YZZZ       0.0000   ZZZZ    -669.0333
 -----------------------------------------------------------------
Archival summary:
1\1\nid01048\OPT\ProcedureUnspecified\BasisUnspecified\286(1-,2)\TueSep623:24:212016TueSep623:24:212016\0\\#,OPT,ProcedureUnspecified,BasisUnspecified,\\-1,2\S\C,1,1.76608\H,2,1.081,1,120.299\C,2,1.38416,1,110.553,3,177.673,0\H,4,1.08764,2,122.459,1,-179.164,0\C,4,1.41046,2,114.503,1,-0.853353,0\H,6,1.08488,4,123.889,2,-176.051,0\C,6,1.41526,4,114.116,2,1.84988,0\C,8,1.41332,6,128.632,4,-174.675,0\C,9,1.41526,8,128.632,6,-30,0\H,10,1.08488,9,121.96,8,3.27191,0\C,10,1.41046,9,114.116,8,-174.675,0\H,12,1.08764,10,123.015,9,-179.85,0\C,12,1.38416,10,114.503,9,1.84988,0\H,14,1.081,12,129.099,10,176.558,0\S,14,1.76608,12,110.553,10,-0.853353,0\\\@

 Total job time:  147.98s(wall), 162.71s(cpu) 
 Tue Sep  6 23:24:21 2016

        *************************************************************
        *                                                           *
        *  Thank you very much for using Q-Chem.  Have a nice day.  *
        *                                                           *
        *************************************************************


0 sent ACK to 0 
now end server 0 ... 
