srun -N 1 --ntasks-per-node 16 --nodelist nid01048 /global/project/projectdirs/jcesr/qchem/qc44/cnl_qc441/dist/exe/qcprog.cori.exe .pt_charged_dft_50.0.in.22953.qcin.1 /dev/shm/eg_qchem/qchem22953/
Process 0 of 16 is on nid01048 - thread support 0
Process 1 of 16 is on nid01048 - thread support 0
Process 2 of 16 is on nid01048 - thread support 0
Process 3 of 16 is on nid01048 - thread support 0
Process 4 of 16 is on nid01048 - thread support 0
Process 5 of 16 is on nid01048 - thread support 0
Process 6 of 16 is on nid01048 - thread support 0
initial socket setup ...start
Process 15 of 16 is on nid01048 - thread support 0
initial socket setup ...done 
now start server 0 ... 
nid01048 10.128.4
Q-Chem Developer Version! Running on 10.128.4.*
                  Welcome to Q-Chem
     A Quantum Leap Into The Future Of Chemistry


 Q-Chem 4.4, Q-Chem, Inc., Pleasanton, CA (2016)

 Y. Shao,  Z. Gan,  E. Epifanovsky,  A. T. B. Gilbert,  M. Wormit,  
 J. Kussmann,  A. W. Lange,  A. Behn,  J. Deng,  X. Feng,  D. Ghosh,  
 M. Goldey,  P. R. Horn,  L. D. Jacobson,  I. Kaliman,  F.Rob,  
 R. Z. Khaliullin,  T. Kus,  A. Landau,  J. Liu,  E. I. Proynov,  Y. M. Rhee,  
 R. M. Richard,  M. A. Rohrdanz,  R. P. Steele,  E. J. Sundstrom,  
 H. L. Woodcock III,  P. M. Zimmerman,  D. Zuev,  B. Albrecht,  E. Alguire,  
 B. Austin,  S. A. Baeppler,  G. J. O. Beran,  Y. A. Bernard,  E. Berquist,  
 K. Brandhorst,  K. B. Bravaya,  S. T. Brown,  D. Casanova,  C.-M. Chang,  
 Y. Chen,  S. H. Chien,  K. D. Closser,  M. P. Coons,  D. L. Crittenden,  
 S. Dasgupta,  M. Diedenhofen,  R. A. DiStasio Jr.,  H. Do,  A. D. Dutoi,  
 R. G. Edgar,  P.-T. Fang,  S. Fatehi,  Q. Feng,  L. Fusti-Molnar,  
 A. Ghysels,  A. Golubeva-Zadorozhnaya,  J. Gomes,  A. Gunina,  
 M. W. D. Hanson-Heine,  P. H. P. Harbach,  A. W. Hauser,  E. G. Hohenstein,  
 Z. C. Holden,  K. Hui,  T.-C. Jagau,  H. Ji,  B. Kaduk,  K. Khistyaev,  
 Jaehoon Kim,  Jihan Kim,  R. A. King,  P. Klunzinger,  D. Kosenkov,  
 T. Kowalczyk,  C. M. Krauter,  A. Kunitsa,  K. U. Lao,  A. Laurent,  
 K. V. Lawler,  D. Lefrancois,  S. Lehtola,  S. V. Levchenko,  C. Y. Lin,  
 Y.-S. Lin,  F. Liu,  E. Livshits,  R. C. Lochan,  A. Luenser,  P. Manohar,  
 S. F. Manzer,  S.-P. Mao,  Y. Mao,  N. Mardirossian,  A. V. Marenich,  
 L. A. Martinez-Martinez,  S. A. Maurer,  N. J. Mayhall,  J.-M. Mewes,  
 A. F. Morrison,  K. Nanda,  C. M. Oana,  R. Olivares-Amaya,  D. P. O'Neill,  
 J. A. Parkhill,  T. M. Perrine,  R. Peverati,  P. A. Pieniazek,  F. Plasser,  
 A. Prociuk,  D. R. Rehn,  E. Rosta,  N. J. Russ,  N. Sergueev,  
 S. M. Sharada,  S. Sharma,  D. W. Small,  A. Sodt,  T. Stauch,  T. Stein,  
 D. Stuck,  Y.-C. Su,  A. J. W. Thom,  T. Tsuchimochi,  L. Vogt,  O. Vydrov,  
 T. Wang,  M. A. Watson,  J. Wenzel,  A. White,  C. F. Williams,  
 V. Vanovschi,  S. Yeganeh,  S. R. Yost,  Z.-Q. You,  I. Y. Zhang,  X. Zhang,  
 Y. Zhao,  B. R. Brooks,  G. K. L. Chan,  D. M. Chipman,  C. J. Cramer,  
 W. A. Goddard III,  M. S. Gordon,  W. J. Hehre,  A. Klamt,  
 H. F. Schaefer III,  M. W. Schmidt,  C. D. Sherrill,  D. G. Truhlar,  
 A. Warshel,  X. Xu,  A. Aspuru-Guzik,  R. Baer,  A. T. Bell,  N. A. Besley,  
 J.-D. Chai,  A. Dreuw,  B. D. Dunietz,  T. R. Furlani,  S. R. Gwaltney,  
 C.-P. Hsu,  Y. Jung,  J. Kong,  D. S. Lambrecht,  W. Liang,  C. Ochsenfeld,  
 V. A. Rassolov,  L. V. Slipchenko,  J. E. Subotnik,  T. Van Voorhis,  
 J. M. Herbert,  A. I. Krylov,  P. M. W. Gill,  M. Head-Gordon

 Contributors to earlier versions of Q-Chem not listed above: 
 R. D. Adamson,  J. Baker,  E. F. C. Byrd,  A. K. Chakraborty,  C.-L. Cheng,  
 H. Dachsel,  R. J. Doerksen,  G. Hawkins,  A. Heyden,  S. Hirata,  
 G. Kedziora,  F. J. Keil,  C. Kelley,  P. P. Korambath,  W. Kurlancheek,  
 A. M. Lee,  M. S. Lee,  D. Liotard,  I. Lotan,  P. E. Maslen,  N. Nair,  
 D. Neuhauser,  R. Olson,  B. Peters,  J. Ritchie,  N. E. Schultz,  
 N. Shenvi,  A. C. Simmonett,  K. S. Thanthiriwatte,  Q. Wu,  W. Zhang

 Please cite Q-Chem as follows:
 Y. Shao et al., Mol. Phys. 113, 184-215 (2015)
 DOI: 10.1080/00268976.2014.952696

 Q-Chem 4.4.1 for Intel X86 EM64T Linux

 Parts of Q-Chem use Armadillo 5.200.1 (Boston Tea Smuggler).
 http://arma.sourceforge.net/

 Q-Chem begins on Tue Sep  6 23:39:03 2016  

Host: nid01047
0

     Scratch files written to /dev/shm/eg_qchem/qchem22953.0//
 Parallel job on  16  processors

Checking the input file for inconsistencies... 	...done.

--------------------------------------------------------------
User input:
--------------------------------------------------------------
$comment
<SCF Fix Strategy>{
    "current_method_id": 1, 
    "methods": [
        "increase_iter", 
        "rca_diis", 
        "gwh", 
        "gdm", 
        "rca", 
        "core+rca", 
        "fon"
    ], 
    "version": 2.0
}</SCF Fix Strategy>
$end


$molecule
 -1  2
 S           1.83794975       -1.27576249       -0.14871336
 C           3.23937819       -0.19806434       -0.14823333
 C           2.83626844        1.12431397       -0.14890172
 C           1.43724334        1.31134696       -0.14931220
 C           0.69606563        0.10654716       -0.14908151
 H           0.95807640        2.28459073       -0.14860036
 C          -0.69610330       -0.10652413       -0.14907621
 S          -1.45548286       -1.22340070        1.03016458
 C          -1.70537683        0.44034498       -0.97562817
 C          -3.06888359       -0.91612648        0.37598128
 C          -3.00581913       -0.01673663       -0.67201831
 H          -3.89002468        0.30882993       -1.21511167
 H           4.24016475       -0.60708034       -0.14954918
 H           3.54430111        1.94981573       -0.14910914
 H          -3.93173355       -1.40835265        0.80268132
 H          -1.48319712        1.14618946       -1.76886499
$end


$rem
         jobtype = opt
        exchange = b3lyp
           basis = 6-31++g**
  max_scf_cycles = 200
      mem_static = 100
       mem_total = 1500
   scf_algorithm = rca_diis
       scf_guess = sad
$end


$opt
CONSTRAINT
tors 4 5 7 9 50.0
ENDCONSTRAINT
$end

--------------------------------------------------------------
 Atom   8: ( -1.6591183029,  0.5541884193,  1.0595068383)
         ->( -1.6591183049,  0.5541883786,  1.0595068574)
 Atom  10: ( -3.1836391946,  0.1028912580,  0.2864595727)
         ->( -3.1836392163,  0.1028914370,  0.2864594679)
 Atom  11: ( -2.9517183434, -0.4623499586, -0.9536603630)
         ->( -2.9517183278, -0.4623500373, -0.9536603204)
 Atom   9: ( -1.5896190167, -0.5499885586, -1.3131845219)
         ->( -1.5896190031, -0.5499885674, -1.3131845281)
 Atom   7: ( -0.7029805272, -0.0412529160, -0.3354589677)
         ->( -0.7029805341, -0.0412528314, -0.3354590118)
 Atom  16: ( -1.2381062058, -0.9681688666, -2.2503978807)
         ->( -1.2381061829, -0.9681687920, -2.2503979168)
 Atom  14: (  3.7575260495,  0.8096895087, -1.5961497506)
         ->(  3.7575260581,  0.8096892496, -1.5961498814)
 Atom  15: ( -4.1232686238,  0.2843086757,  0.7895041397)
         ->( -4.1232686269,  0.2843084530,  0.7895041930)
 ----------------------------------------------------------------
             Standard Nuclear Orientation (Angstroms)
    I     Atom           X                Y                Z
 ----------------------------------------------------------------
    1      S       1.6591183049    -0.5541883786     1.0595068574
    2      C       3.1836392163    -0.1028914370     0.2864594679
    3      C       2.9517183278     0.4623500373    -0.9536603204
    4      C       1.5896190031     0.5499885674    -1.3131845281
    5      C       0.7029805341     0.0412528314    -0.3354590118
    6      H       1.2381061829     0.9681687920    -2.2503979168
    7      C      -0.7029805341    -0.0412528314    -0.3354590118
    8      S      -1.6591183049     0.5541883786     1.0595068574
    9      C      -1.5896190031    -0.5499885674    -1.3131845281
   10      C      -3.1836392163     0.1028914370     0.2864594679
   11      C      -2.9517183278    -0.4623500373    -0.9536603204
   12      H      -3.7575260581    -0.8096892496    -1.5961498814
   13      H       4.1232686269    -0.2843084530     0.7895041930
   14      H       3.7575260581     0.8096892496    -1.5961498814
   15      H      -4.1232686269     0.2843084530     0.7895041930
   16      H      -1.2381061829    -0.9681687920    -2.2503979168
 ----------------------------------------------------------------
 Molecular Point Group                 C2    NOp =  2
 Largest Abelian Subgroup              C2    NOp =  2
 Nuclear Repulsion Energy =   625.5323669272 hartrees
 There are       44 alpha and       43 beta electrons
 Requested basis set is 6-31++G(d,p)
 There are 76 shells and 234 basis functions

 Total QAlloc Memory Limit   1500 MB
 Mega-Array Size        98 MB
 MEM_STATIC part       100 MB
 A cutoff of  1.0D-12 yielded   2519 shell pairs
 There are     24825 function pairs
 
 -------------------------------------------------------
 OpenMP Integral Computing Module                       
 Release: version 1.0, May 2013, Q-Chem Inc. Pittsburgh 
 -------------------------------------------------------
 Integral Job Info:
 Integral job number is                      11
 Integral operator is                         1
 short-range coefficients                     0
 long-range coefficients              100000000
 Omega coefficients                           0
 if combine SR and LR in K                    0
 Integral screening is                        0
 Integral computing path is                   2
 max size of driver memory is            800000
 size of driver memory is                593474
 size of scratch memory is             15166112
 max col of scratch BK array               1296
 max len of scratch array in speh3          155
 max len of scratch index in speh4           18
 max int batch size is                      520
 min int batch size is                       52
 fixed nKL is                                52
 max L of basis functions is                  2
 order of int derivative is                   0
 number of shells is                         76
 number of basis is                         234
 number of cartesian basis is               234
 number of contracted shell pairs          2519
 number of primitive shell pairs           8210
 maxK2 (contraction) of shell pair           36
 max number of K2 of shell pair               1
 max number of CS2 of shell pair            258
 max number of PS2 of shell pair           1524
 mem total for path MDJ                   51992
 -------------------------------------------------------
 Smallest overlap matrix eigenvalue = 9.42E-07
 Linear dependence detected in AO basis
 Number of orthogonalized atomic orbitals = 233
 Maximum deviation from orthogonality = 5.467E-11

 Scale SEOQF with 1.000000e-01/1.000000e-01/1.000000e-01

 Standard Electronic Orientation quadrupole field applied
 Nucleus-field energy     =     0.0000000070 hartrees
 Guess from superposition of atomic densities
 Warning:  Energy on first SCF cycle will be non-variational
 An unrestricted hybrid HF-DFT SCF calculation will be
 performed using Relaxed Constraint Minimization + Pulay DIIS
 Exchange:     0.2000 Hartree-Fock + 0.0800 Slater + 0.7200 B88
 Correlation:  0.1900 VWN1RPA + 0.8100 LYP
 Using SG-1 standard quadrature grid
 SCF converges when DIIS error is below 1.0E-08
 Inaccurate integrated density:
   Number of electrons =    87
   Numerical integral  =    86.000125231382
   Relative error      =    -1.1492813432 %
 Inaccurate integrated density:
   Number of electrons =    87
   Numerical integral  =    86.000125231382
   Relative error      =    -1.1492813432 %
 ---------------------------------------
  Cycle       Energy         DIIS Error
 ---------------------------------------
    1   -1106.9985049076      4.30E-02
    2    -974.1795836461      1.13E-01
 Inaccurate integrated density:
   Number of electrons =    87
   Numerical integral  =    86.978808908903
   Relative error      =    -0.0243575760 %
 Inaccurate integrated density:
   Number of electrons =    87
   Numerical integral  =    86.978808908905
   Relative error      =    -0.0243575760 %
    3   -1107.8854581227      5.51E-02
 Inaccurate integrated density:
   Number of electrons =    87
   Numerical integral  =    86.962832798922
   Relative error      =    -0.0427209208 %
 Inaccurate integrated density:
   Number of electrons =    87
   Numerical integral  =    86.975462359938
   Relative error      =    -0.0282041840 %
    4   -1109.6405177932      3.54E-02
 Inaccurate integrated density:
   Number of electrons =    87
   Numerical integral  =    86.963678566338
   Relative error      =    -0.0417487743 %
 Inaccurate integrated density:
   Number of electrons =    87
   Numerical integral  =    86.974664185426
   Relative error      =    -0.0291216259 %
Recomputing EXC -1108.718813 -1109.960001 -1109.640518 
 Inaccurate integrated density:
   Number of electrons =    87
   Numerical integral  =    86.975401813028
   Relative error      =    -0.0282737781 %
Recomputing EXC -1109.573018 -1109.664617 -1109.640518 
 Inaccurate integrated density:
   Number of electrons =    87
   Numerical integral  =    86.975457729723
   Relative error      =    -0.0282095061 %
Recomputing EXC -1109.635370 -1109.642360 -1109.640518 
    5   -1109.6353698811      3.54E-02
 Inaccurate integrated density:
   Number of electrons =    87
   Numerical integral  =    86.963679183498
   Relative error      =    -0.0417480649 %
 Inaccurate integrated density:
   Number of electrons =    87
   Numerical integral  =    86.974660305009
   Relative error      =    -0.0291260862 %
Recomputing EXC -1108.660271 -1109.954377 -1109.635370 
 Inaccurate integrated density:
   Number of electrons =    87
   Numerical integral  =    86.975398988701
   Relative error      =    -0.0282770245 %
Recomputing EXC -1109.531515 -1109.658760 -1109.635370 
 Inaccurate integrated density:
   Number of electrons =    87
   Numerical integral  =    86.975454424796
   Relative error      =    -0.0282133048 %
Recomputing EXC -1109.594616 -1109.636695 -1109.635370 
    6   -1109.5946158008      3.53E-02
 Inaccurate integrated density:
   Number of electrons =    87
   Numerical integral  =    86.963736320970
   Relative error      =    -0.0416823897 %
 Inaccurate integrated density:
   Number of electrons =    87
   Numerical integral  =    86.974776487052
   Relative error      =    -0.0289925436 %
Recomputing EXC -1108.564304 -1109.851122 -1109.594616 
 Inaccurate integrated density:
   Number of electrons =    87
   Numerical integral  =    86.975413353183
   Relative error      =    -0.0282605136 %
Recomputing EXC -1109.498404 -1109.610119 -1109.594616 
 Inaccurate integrated density:
   Number of electrons =    87
   Numerical integral  =    86.975452642648
   Relative error      =    -0.0282153533 %
Recomputing EXC -1109.555012 -1109.595293 -1109.594616 
    7   -1109.5550123641      3.53E-02
 Inaccurate integrated density:
   Number of electrons =    87
   Numerical integral  =    86.963797649881
   Relative error      =    -0.0416118967 %
 Inaccurate integrated density:
   Number of electrons =    87
   Numerical integral  =    86.974879564460
   Relative error      =    -0.0288740638 %
Recomputing EXC -1108.483785 -1109.760632 -1109.555012 
 Inaccurate integrated density:
   Number of electrons =    87
   Numerical integral  =    86.975424181567
   Relative error      =    -0.0282480672 %
Recomputing EXC -1109.466937 -1109.565217 -1109.555012 
 Inaccurate integrated density:
   Number of electrons =    87
   Numerical integral  =    86.975451703064
   Relative error      =    -0.0282164333 %
Recomputing EXC -1109.516276 -1109.555351 -1109.555012 
    8   -1109.5162757728      3.54E-02
 Inaccurate integrated density:
   Number of electrons =    87
   Numerical integral  =    86.963866055102
   Relative error      =    -0.0415332700 %
 Inaccurate integrated density:
   Number of electrons =    87
   Numerical integral  =    86.974971119657
   Relative error      =    -0.0287688280 %
Recomputing EXC -1108.405347 -1109.680441 -1109.516276 
 Inaccurate integrated density:
   Number of electrons =    87
   Numerical integral  =    86.975432378653
   Relative error      =    -0.0282386452 %
Recomputing EXC -1109.436003 -1109.522880 -1109.516276 
 Inaccurate integrated density:
   Number of electrons =    87
   Numerical integral  =    86.975451229667
   Relative error      =    -0.0282169774 %
Recomputing EXC -1109.478160 -1109.516438 -1109.516276 
    9   -1109.4781597299      3.55E-02
 Inaccurate integrated density:
   Number of electrons =    87
   Numerical integral  =    86.963910643308
   Relative error      =    -0.0414820192 %
 Inaccurate integrated density:
   Number of electrons =    87
   Numerical integral  =    86.975071169583
   Relative error      =    -0.0286538281 %
Recomputing EXC -1108.262103 -1109.602360 -1109.478160 
 Inaccurate integrated density:
   Number of electrons =    87
   Numerical integral  =    86.975440076528
   Relative error      =    -0.0282297971 %
Recomputing EXC -1109.406166 -1109.481813 -1109.478160 
 Inaccurate integrated density:
   Number of electrons =    87
   Numerical integral  =    86.975451053817
   Relative error      =    -0.0282171795 %
Recomputing EXC -1109.440551 -1109.478218 -1109.478160 
   10   -1109.4405507055      3.57E-02
 Inaccurate integrated density:
   Number of electrons =    87
   Numerical integral  =    86.962185022075
   Relative error      =    -0.0434654919 %
 Inaccurate integrated density:
   Number of electrons =    87
   Numerical integral  =    86.975382935891
   Relative error      =    -0.0282954760 %
Recomputing EXC -1108.111923 -1109.459549 -1109.440551 
 Inaccurate integrated density:
   Number of electrons =    87
   Numerical integral  =    86.975450736291
   Relative error      =    -0.0282175445 %
Recomputing EXC -1109.397466 -1109.440639 -1109.440551 
 Inaccurate integrated density:
   Number of electrons =    87
   Numerical integral  =    86.975451053597
   Relative error      =    -0.0282171798 %
Recomputing EXC -1109.403489 -1109.440551 -1109.440551 
   11   -1109.4034891540      3.59E-02
 Inaccurate integrated density:
   Number of electrons =    87
   Numerical integral  =    86.962299173487
   Relative error      =    -0.0433342833 %
 Inaccurate integrated density:
   Number of electrons =    87
   Numerical integral  =    86.975414644414
   Relative error      =    -0.0282590294 %
Recomputing EXC -1108.117906 -1109.413679 -1109.403489 
 Inaccurate integrated density:
   Number of electrons =    87
   Numerical integral  =    86.975450958585
   Relative error      =    -0.0282172890 %
Recomputing EXC -1109.363173 -1109.403516 -1109.403489 
 Inaccurate integrated density:
   Number of electrons =    87
   Numerical integral  =    86.975451053577
   Relative error      =    -0.0282171798 %
Recomputing EXC -1109.366431 -1109.403489 -1109.403489 
   12   -1109.3664310109      3.61E-02
 Inaccurate integrated density:
   Number of electrons =    87
   Numerical integral  =    86.962135008267
   Relative error      =    -0.0435229790 %
 Inaccurate integrated density:
   Number of electrons =    87
   Numerical integral  =    86.975347491184
   Relative error      =    -0.0283362170 %
Recomputing EXC -1108.132132 -1109.395383 -1109.366431 
 Inaccurate integrated density:
   Number of electrons =    87
   Numerical integral  =    86.975450272531
   Relative error      =    -0.0282180776 %
Recomputing EXC -1109.320344 -1109.366649 -1109.366431 
 Inaccurate integrated density:
   Number of electrons =    87
   Numerical integral  =    86.975451052351
   Relative error      =    -0.0282171812 %
Recomputing EXC -1109.329359 -1109.366431 -1109.366431 
   13   -1109.3293593989      3.64E-02
 Inaccurate integrated density:
   Number of electrons =    87
   Numerical integral  =    86.962149241349
   Relative error      =    -0.0435066191 %
 Inaccurate integrated density:
   Number of electrons =    87
   Numerical integral  =    86.975436330797
   Relative error      =    -0.0282341025 %
Recomputing EXC -1108.161625 -1109.333579 -1109.329359 
 Inaccurate integrated density:
   Number of electrons =    87
   Numerical integral  =    86.975451034715
   Relative error      =    -0.0282172015 %
Recomputing EXC -1109.290948 -1109.329364 -1109.329359 
 Inaccurate integrated density:
   Number of electrons =    87
   Numerical integral  =    86.975451052351
   Relative error      =    -0.0282171812 %
Recomputing EXC -1109.292302 -1109.329359 -1109.329359 
   14   -1109.2923019329      3.67E-02
 Inaccurate integrated density:
   Number of electrons =    87
   Numerical integral  =    86.970707279032
   Relative error      =    -0.0336697942 %
 Inaccurate integrated density:
   Number of electrons =    87
   Numerical integral  =    86.975445208417
   Relative error      =    -0.0282238984 %
Recomputing EXC -1108.052801 -1109.297157 -1109.292302 
 Inaccurate integrated density:
   Number of electrons =    87
   Numerical integral  =    86.975451044768
   Relative error      =    -0.0282171899 %
Recomputing EXC -1109.253685 -1109.292308 -1109.292302 
 Inaccurate integrated density:
   Number of electrons =    87
   Numerical integral  =    86.975451052353
   Relative error      =    -0.0282171812 %
Recomputing EXC -1109.255244 -1109.292302 -1109.292302 
   15   -1109.2552444399      3.70E-02
 Inaccurate integrated density:
   Number of electrons =    87
   Numerical integral  =    86.970729019572
   Relative error      =    -0.0336448051 %
 Inaccurate integrated density:
   Number of electrons =    87
   Numerical integral  =    86.975445869156
   Relative error      =    -0.0282231389 %
Recomputing EXC -1107.942021 -1109.259750 -1109.255244 
 Inaccurate integrated density:
   Number of electrons =    87
   Numerical integral  =    86.975451046453
   Relative error      =    -0.0282171880 %
Recomputing EXC -1109.216736 -1109.255250 -1109.255244 
 Inaccurate integrated density:
   Number of electrons =    87
   Numerical integral  =    86.975451052351
   Relative error      =    -0.0282171812 %
Recomputing EXC -1109.218187 -1109.255244 -1109.255244 
   16   -1109.2181869681      3.74E-02
 Inaccurate integrated density:
   Number of electrons =    87
   Numerical integral  =    86.970719217714
   Relative error      =    -0.0336560716 %
 Inaccurate integrated density:
   Number of electrons =    87
   Numerical integral  =    86.975446398730
   Relative error      =    -0.0282225302 %
Recomputing EXC -1107.827454 -1109.222404 -1109.218187 
 Inaccurate integrated density:
   Number of electrons =    87
   Numerical integral  =    86.975451047671
   Relative error      =    -0.0282171866 %
Recomputing EXC -1109.179768 -1109.218191 -1109.218187 
 Inaccurate integrated density:
   Number of electrons =    87
   Numerical integral  =    86.975451052351
   Relative error      =    -0.0282171812 %
Recomputing EXC -1109.181130 -1109.218187 -1109.218187 
   17   -1109.1811295106      3.78E-02
 Inaccurate integrated density:
   Number of electrons =    87
   Numerical integral  =    86.972363978545
   Relative error      =    -0.0317655419 %
 Inaccurate integrated density:
   Number of electrons =    87
   Numerical integral  =    86.975446057529
   Relative error      =    -0.0282229224 %
Recomputing EXC -1107.794275 -1109.188408 -1109.181130 
 Inaccurate integrated density:
   Number of electrons =    87
   Numerical integral  =    86.975451043684
   Relative error      =    -0.0282171912 %
Recomputing EXC -1109.141731 -1109.181142 -1109.181130 
 Inaccurate integrated density:
   Number of electrons =    87
   Numerical integral  =    86.975451052348
   Relative error      =    -0.0282171812 %
Recomputing EXC -1109.144072 -1109.181130 -1109.181130 
   18   -1109.1440718531      3.83E-02
 Inaccurate integrated density:
   Number of electrons =    87
   Numerical integral  =    86.972482980462
   Relative error      =    -0.0316287581 %
 Inaccurate integrated density:
   Number of electrons =    87
   Numerical integral  =    86.975446387847
   Relative error      =    -0.0282225427 %
Recomputing EXC -1107.688215 -1109.151519 -1109.144072 
 Inaccurate integrated density:
   Number of electrons =    87
   Numerical integral  =    86.975451044455
   Relative error      =    -0.0282171903 %
Recomputing EXC -1109.104616 -1109.144084 -1109.144072 
 Inaccurate integrated density:
   Number of electrons =    87
   Numerical integral  =    86.975451052346
   Relative error      =    -0.0282171812 %
Recomputing EXC -1109.107014 -1109.144072 -1109.144072 
   19   -1109.1070141906      3.88E-02
 Inaccurate integrated density:
   Number of electrons =    87
   Numerical integral  =    86.973330307190
   Relative error      =    -0.0306548193 %
 Inaccurate integrated density:
   Number of electrons =    87
   Numerical integral  =    86.975446752195
   Relative error      =    -0.0282221239 %
Recomputing EXC -1107.573012 -1109.117142 -1109.107014 
 Inaccurate integrated density:
   Number of electrons =    87
   Numerical integral  =    86.975451042978
   Relative error      =    -0.0282171920 %
Recomputing EXC -1109.066698 -1109.107036 -1109.107014 
 Inaccurate integrated density:
   Number of electrons =    87
   Numerical integral  =    86.975451052346
   Relative error      =    -0.0282171812 %
Recomputing EXC -1109.069956 -1109.107014 -1109.107014 
   20   -1109.0699561895      3.93E-02
 Inaccurate integrated density:
   Number of electrons =    87
   Numerical integral  =    86.974806696331
   Relative error      =    -0.0289578203 %
 Inaccurate integrated density:
   Number of electrons =    87
   Numerical integral  =    86.975449503428
   Relative error      =    -0.0282189616 %
Recomputing EXC -1107.435449 -1109.082640 -1109.069956 
 Inaccurate integrated density:
   Number of electrons =    87
   Numerical integral  =    86.975451048389
   Relative error      =    -0.0282171858 %
Recomputing EXC -1109.028818 -1109.069989 -1109.069956 
 Inaccurate integrated density:
   Number of electrons =    87
   Numerical integral  =    86.975451052344
   Relative error      =    -0.0282171812 %
Recomputing EXC -1109.032898 -1109.069956 -1109.069956 
   21   -1109.0328977112      3.98E-02
 Inaccurate integrated density:
   Number of electrons =    87
   Numerical integral  =    86.975061097127
   Relative error      =    -0.0286654056 %
 Inaccurate integrated density:
   Number of electrons =    87
   Numerical integral  =    86.975450640202
   Relative error      =    -0.0282176549 %
Recomputing EXC -1107.329373 -1109.038793 -1109.032898 
 Inaccurate integrated density:
   Number of electrons =    87
   Numerical integral  =    86.975451051873
   Relative error      =    -0.0282171818 %
Recomputing EXC -1108.993929 -1109.032904 -1109.032898 
 Inaccurate integrated density:
   Number of electrons =    87
   Numerical integral  =    86.975451052346
   Relative error      =    -0.0282171812 %
Recomputing EXC -1108.995840 -1109.032898 -1109.032898 
   22   -1108.9958401934      4.04E-02
 Inaccurate integrated density:
   Number of electrons =    87
   Numerical integral  =    86.975680366828
   Relative error      =    -0.0279536013 %
 Inaccurate integrated density:
   Number of electrons =    87
   Numerical integral  =    86.975451411865
   Relative error      =    -0.0282167680 %
Recomputing EXC -1107.182767 -1109.005101 -1108.995840 
 Inaccurate integrated density:
   Number of electrons =    87
   Numerical integral  =    86.975451052956
   Relative error      =    -0.0282171805 %
Recomputing EXC -1108.955784 -1108.995856 -1108.995840 
 Inaccurate integrated density:
   Number of electrons =    87
   Numerical integral  =    86.975451052342
   Relative error      =    -0.0282171812 %
Recomputing EXC -1108.958782 -1108.995840 -1108.995840 
   23   -1108.9587823967      4.10E-02
 Inaccurate integrated density:
   Number of electrons =    87
   Numerical integral  =    86.975535209410
   Relative error      =    -0.0281204490 %
 Inaccurate integrated density:
   Number of electrons =    87
   Numerical integral  =    86.975451324692
   Relative error      =    -0.0282168682 %
Recomputing EXC -1106.986684 -1108.979066 -1108.958782 
 Inaccurate integrated density:
   Number of electrons =    87
   Numerical integral  =    86.975451053264
   Relative error      =    -0.0282171802 %
Recomputing EXC -1108.915200 -1108.958851 -1108.958782 
 Inaccurate integrated density:
   Number of electrons =    87
   Numerical integral  =    86.975451052344
   Relative error      =    -0.0282171812 %
Recomputing EXC -1108.921722 -1108.958782 -1108.958782 
   24   -1108.9217215808      4.16E-02
 Inaccurate integrated density:
   Number of electrons =    87
   Numerical integral  =    86.975401957006
   Relative error      =    -0.0282736126 %
 Inaccurate integrated density:
   Number of electrons =    87
   Numerical integral  =    86.975450832021
   Relative error      =    -0.0282174345 %
Recomputing EXC -1106.804877 -1108.951521 -1108.921722 
 Inaccurate integrated density:
   Number of electrons =    87
   Numerical integral  =    86.975451051329
   Relative error      =    -0.0282171824 %
Recomputing EXC -1108.875122 -1108.921858 -1108.921722 
 Inaccurate integrated density:
   Number of electrons =    87
   Numerical integral  =    86.975451052346
   Relative error      =    -0.0282171812 %
Recomputing EXC -1108.884655 -1108.921722 -1108.921722 
   25   -1108.8846548711      4.23E-02
 Inaccurate integrated density:
   Number of electrons =    87
   Numerical integral  =    86.975239686923
   Relative error      =    -0.0284601300 %
 Inaccurate integrated density:
   Number of electrons =    87
   Numerical integral  =    86.975449728030
   Relative error      =    -0.0282187034 %
Recomputing EXC -1106.605292 -1108.928653 -1108.884655 
 Inaccurate integrated density:
   Number of electrons =    87
   Numerical integral  =    86.975451044077
   Relative error      =    -0.0282171907 %
Recomputing EXC -1108.833602 -1108.884930 -1108.884655 
 Inaccurate integrated density:
   Number of electrons =    87
   Numerical integral  =    86.975451052333
   Relative error      =    -0.0282171812 %
Recomputing EXC -1108.847573 -1108.884655 -1108.884655 
   26   -1108.8475725471      4.30E-02
 Inaccurate integrated density:
   Number of electrons =    87
   Numerical integral  =    86.974944592530
   Relative error      =    -0.0287993189 %
 Inaccurate integrated density:
   Number of electrons =    87
   Numerical integral  =    86.975415450921
   Relative error      =    -0.0282581024 %
Recomputing EXC -1104.991165 -1109.343389 -1108.847573 
 Inaccurate integrated density:
   Number of electrons =    87
   Numerical integral  =    86.975449834812
   Relative error      =    -0.0282185807 %
Recomputing EXC -1108.662008 -1108.865229 -1108.847573 
 Inaccurate integrated density:
   Number of electrons =    87
   Numerical integral  =    86.975451018784
   Relative error      =    -0.0282172198 %
Recomputing EXC -1108.806406 -1108.848060 -1108.847573 
   27   -1108.8064061420      4.37E-02
 Inaccurate integrated density:
   Number of electrons =    87
   Numerical integral  =    86.973696720225
   Relative error      =    -0.0302336549 %
 Inaccurate integrated density:
   Number of electrons =    87
   Numerical integral  =    86.973696720227
   Relative error      =    -0.0302336549 %
   28   -1771.1740082512      3.62E+00
 Inaccurate integrated density:
   Number of electrons =    87
   Numerical integral  =    86.935516175501
   Relative error      =    -0.0741193385 %
 Inaccurate integrated density:
   Number of electrons =    87
   Numerical integral  =    86.964148270339
   Relative error      =    -0.0412088847 %
   29   -1953.7947515584      2.07E+00
 Inaccurate integrated density:
   Number of electrons =    87
   Numerical integral  =    86.936857580895
   Relative error      =    -0.0725774932 %
 Inaccurate integrated density:
   Number of electrons =    87
   Numerical integral  =    86.958728638711
   Relative error      =    -0.0474383463 %
Recomputing EXC -1971.018343 -2160.545876 -1953.794752 
 Inaccurate integrated density:
   Number of electrons =    87
   Numerical integral  =    86.962854454757
   Relative error      =    -0.0426960290 %
   30   -1964.2531021850      1.89E+00
 Inaccurate integrated density:
   Number of electrons =    87
   Numerical integral  =    86.936894497030
   Relative error      =    -0.0725350609 %
 Inaccurate integrated density:
   Number of electrons =    87
   Numerical integral  =    86.957897553373
   Relative error      =    -0.0483936168 %
Recomputing EXC -1967.437755 -2147.061501 -1964.253102 
 Inaccurate integrated density:
   Number of electrons =    87
   Numerical integral  =    86.961728083481
   Relative error      =    -0.0439907086 %
   31   -1970.1472674872      1.74E+00
 Inaccurate integrated density:
   Number of electrons =    87
   Numerical integral  =    86.936910881353
   Relative error      =    -0.0725162283 %
 Inaccurate integrated density:
   Number of electrons =    87
   Numerical integral  =    86.957210401436
   Relative error      =    -0.0491834466 %
Recomputing EXC -1961.224681 -2131.840869 -1970.147267 
 Inaccurate integrated density:
   Number of electrons =    87
   Numerical integral  =    86.960749939409
   Relative error      =    -0.0451150122 %
Recomputing EXC -1972.633462 -2004.180531 -1970.147267 
 Inaccurate integrated density:
   Number of electrons =    87
   Numerical integral  =    86.961508524624
   Relative error      =    -0.0442430751 %
   32   -1970.9178700411      1.71E+00
 Inaccurate integrated density:
   Number of electrons =    87
   Numerical integral  =    86.936936596226
   Relative error      =    -0.0724866710 %
 Inaccurate integrated density:
   Number of electrons =    87
   Numerical integral  =    86.957113519398
   Relative error      =    -0.0492948053 %
Recomputing EXC -1958.525315 -2127.488758 -1970.917870 
 Inaccurate integrated density:
   Number of electrons =    87
   Numerical integral  =    86.960570549610
   Relative error      =    -0.0453212073 %
Recomputing EXC -1972.580707 -2003.406223 -1970.917870 
 Inaccurate integrated density:
   Number of electrons =    87
   Numerical integral  =    86.961300981262
   Relative error      =    -0.0444816307 %
Recomputing EXC -1971.487190 -1978.054869 -1970.917870 
   33   -1971.4871904163      1.68E+00
 Inaccurate integrated density:
   Number of electrons =    87
   Numerical integral  =    86.936967821097
   Relative error      =    -0.0724507803 %
 Inaccurate integrated density:
   Number of electrons =    87
   Numerical integral  =    86.957019376616
   Relative error      =    -0.0494030154 %
Recomputing EXC -1956.148594 -2123.322147 -1971.487190 
 Inaccurate integrated density:
   Number of electrons =    87
   Numerical integral  =    86.960399147518
   Relative error      =    -0.0455182212 %
Recomputing EXC -1972.741774 -2002.586009 -1971.487190 
 Inaccurate integrated density:
   Number of electrons =    87
   Numerical integral  =    86.961102813207
   Relative error      =    -0.0447094101 %
   34   -1972.2552068422      1.65E+00
 Inaccurate integrated density:
   Number of electrons =    87
   Numerical integral  =    86.936780588783
   Relative error      =    -0.0726659899 %
 Inaccurate integrated density:
   Number of electrons =    87
   Numerical integral  =    86.956153086892
   Relative error      =    -0.0503987507 %
Recomputing EXC -1982.658422 -2142.189339 -1972.255207 
 Inaccurate integrated density:
   Number of electrons =    87
   Numerical integral  =    86.959964885766
   Relative error      =    -0.0460173727 %
   35   -1978.1301991433      1.52E+00
 Inaccurate integrated density:
   Number of electrons =    87
   Numerical integral  =    86.936892622843
   Relative error      =    -0.0725372151 %
 Inaccurate integrated density:
   Number of electrons =    87
   Numerical integral  =    86.955771723729
   Relative error      =    -0.0508370992 %
Recomputing EXC -1966.042592 -2121.024386 -1978.130199 
 Inaccurate integrated density:
   Number of electrons =    87
   Numerical integral  =    86.959080955757
   Relative error      =    -0.0470333842 %
Recomputing EXC -1978.903947 -2007.537191 -1978.130199 
 Inaccurate integrated density:
   Number of electrons =    87
   Numerical integral  =    86.959772846933
   Relative error      =    -0.0462381070 %
Recomputing EXC -1978.449192 -1984.481392 -1978.130199 
   36   -1978.4491915703      1.49E+00
 Inaccurate integrated density:
   Number of electrons =    87
   Numerical integral  =    86.936905428988
   Relative error      =    -0.0725224954 %
 Inaccurate integrated density:
   Number of electrons =    87
   Numerical integral  =    86.955636762390
   Relative error      =    -0.0509922271 %
Recomputing EXC -1965.449890 -2118.670949 -1978.449192 
 Inaccurate integrated density:
   Number of electrons =    87
   Numerical integral  =    86.958905890865
   Relative error      =    -0.0472346082 %
Recomputing EXC -1979.202786 -2007.153071 -1978.449192 
 Inaccurate integrated density:
   Number of electrons =    87
   Numerical integral  =    86.959584522246
   Relative error      =    -0.0464545721 %
Recomputing EXC -1979.029611 -1984.643798 -1978.449192 
   37   -1979.0296109947      1.47E+00
 Inaccurate integrated density:
   Number of electrons =    87
   Numerical integral  =    86.936781079109
   Relative error      =    -0.0726654263 %
 Inaccurate integrated density:
   Number of electrons =    87
   Numerical integral  =    86.954906613746
   Relative error      =    -0.0518314785 %
Recomputing EXC -1988.372223 -2133.484242 -1979.029611 
 Inaccurate integrated density:
   Number of electrons =    87
   Numerical integral  =    86.958515405299
   Relative error      =    -0.0476834422 %
   38   -1984.2148210217      1.35E+00
 Inaccurate integrated density:
   Number of electrons =    87
   Numerical integral  =    86.936815075792
   Relative error      =    -0.0726263497 %
 Inaccurate integrated density:
   Number of electrons =    87
   Numerical integral  =    86.953680680796
   Relative error      =    -0.0532405968 %
   39   -2008.2539457985      9.08E-01
 Inaccurate integrated density:
   Number of electrons =    87
   Numerical integral  =    86.937718143076
   Relative error      =    -0.0715883413 %
 Inaccurate integrated density:
   Number of electrons =    87
   Numerical integral  =    86.951092813982
   Relative error      =    -0.0562151563 %
Recomputing EXC -1978.854242 -2092.122996 -2008.253946 
 Inaccurate integrated density:
   Number of electrons =    87
   Numerical integral  =    86.953220290112
   Relative error      =    -0.0537697815 %
Recomputing EXC -2004.135693 -2022.983571 -2008.253946 
 Inaccurate integrated density:
   Number of electrons =    87
   Numerical integral  =    86.953597450097
   Relative error      =    -0.0533362643 %
Recomputing EXC -2007.545078 -2010.910164 -2008.253946 
   40   -2007.5450775373      9.00E-01
 Inaccurate integrated density:
   Number of electrons =    87
   Numerical integral  =    86.937728852313
   Relative error      =    -0.0715760318 %
 Inaccurate integrated density:
   Number of electrons =    87
   Numerical integral  =    86.951033240770
   Relative error      =    -0.0562836313 %
Recomputing EXC -1978.126335 -2090.493627 -2007.545078 
 Inaccurate integrated density:
   Number of electrons =    87
   Numerical integral  =    86.953142321301
   Relative error      =    -0.0538594008 %
Recomputing EXC -2003.636852 -2022.079218 -2007.545078 
 Inaccurate integrated density:
   Number of electrons =    87
   Numerical integral  =    86.953514706842
   Relative error      =    -0.0534313714 %
Recomputing EXC -2007.088943 -2010.178835 -2007.545078 
   41   -2007.0889430301      8.91E-01
 Inaccurate integrated density:
   Number of electrons =    87
   Numerical integral  =    86.937683756317
   Relative error      =    -0.0716278663 %
 Inaccurate integrated density:
   Number of electrons =    87
   Numerical integral  =    86.950651957667
   Relative error      =    -0.0567218877 %
Recomputing EXC -1990.978893 -2098.211143 -2007.088943 
 Inaccurate integrated density:
   Number of electrons =    87
   Numerical integral  =    86.952957216614
   Relative error      =    -0.0540721648 %
Recomputing EXC -2005.189483 -2024.626640 -2007.088943 
 Inaccurate integrated density:
   Number of electrons =    87
   Numerical integral  =    86.953403833813
   Relative error      =    -0.0535588117 %
Recomputing EXC -2006.964829 -2010.565561 -2007.088943 
   42   -2006.9648294211      8.81E-01
 Inaccurate integrated density:
   Number of electrons =    87
   Numerical integral  =    86.937667916580
   Relative error      =    -0.0716460729 %
 Inaccurate integrated density:
   Number of electrons =    87
   Numerical integral  =    86.950147361176
   Relative error      =    -0.0573018837 %
Recomputing EXC -2008.593658 -2108.636657 -2006.964829 
 Inaccurate integrated density:
   Number of electrons =    87
   Numerical integral  =    86.952696787968
   Relative error      =    -0.0543715081 %
Recomputing EXC -2008.327414 -2028.839929 -2006.964829 
 Inaccurate integrated density:
   Number of electrons =    87
   Numerical integral  =    86.953247804474
   Relative error      =    -0.0537381558 %
   43   -2007.5117866772      8.67E-01
 Inaccurate integrated density:
   Number of electrons =    87
   Numerical integral  =    86.937673688077
   Relative error      =    -0.0716394390 %
 Inaccurate integrated density:
   Number of electrons =    87
   Numerical integral  =    86.949626878975
   Relative error      =    -0.0579001391 %
   44   -2025.5868491711      5.86E-01
 Inaccurate integrated density:
   Number of electrons =    87
   Numerical integral  =    86.940977134665
   Relative error      =    -0.0678423739 %
 Inaccurate integrated density:
   Number of electrons =    87
   Numerical integral  =    86.940977134679
   Relative error      =    -0.0678423739 %
   45   -3354.2132580606      5.63E-01
 Inaccurate integrated density:
   Number of electrons =    87
   Numerical integral  =    86.949949279402
   Relative error      =    -0.0575295639 %
 Inaccurate integrated density:
   Number of electrons =    87
   Numerical integral  =    86.941023340248
   Relative error      =    -0.0677892641 %
Recomputing EXC -3343.426265 -3354.384837 -3354.213258 
 Inaccurate integrated density:
   Number of electrons =    87
   Numerical integral  =    86.940977373770
   Relative error      =    -0.0678420991 %
Recomputing EXC -3354.157449 -3354.214146 -3354.213258 
 Inaccurate integrated density:
   Number of electrons =    87
   Numerical integral  =    86.940977135941
   Relative error      =    -0.0678423725 %
Recomputing EXC -3354.212969 -3354.213263 -3354.213258 
   46   -3354.2129692848      5.63E-01
 Inaccurate integrated density:
   Number of electrons =    87
   Numerical integral  =    86.949949279206
   Relative error      =    -0.0575295641 %
 Inaccurate integrated density:
   Number of electrons =    87
   Numerical integral  =    86.941023341409
   Relative error      =    -0.0677892627 %
Recomputing EXC -3343.805532 -3354.384548 -3354.212969 
 Inaccurate integrated density:
   Number of electrons =    87
   Numerical integral  =    86.940977383606
   Relative error      =    -0.0678420878 %
   47   -3354.5435803185      5.63E-01
 Inaccurate integrated density:
   Number of electrons =    87
   Numerical integral  =    86.949997718102
   Relative error      =    -0.0574738872 %
 Inaccurate integrated density:
   Number of electrons =    87
   Numerical integral  =    86.941029729221
   Relative error      =    -0.0677819204 %
Recomputing EXC -3344.185611 -3354.729738 -3354.543580 
 Inaccurate integrated density:
   Number of electrons =    87
   Numerical integral  =    86.940977688685
   Relative error      =    -0.0678417371 %
Recomputing EXC -3354.483218 -3354.544665 -3354.543580 
 Inaccurate integrated density:
   Number of electrons =    87
   Numerical integral  =    86.940977385396
   Relative error      =    -0.0678420858 %
Recomputing EXC -3354.543229 -3354.543587 -3354.543580 
   48   -3354.5432285193      5.63E-01
 Inaccurate integrated density:
   Number of electrons =    87
   Numerical integral  =    86.949997717122
   Relative error      =    -0.0574738884 %
 Inaccurate integrated density:
   Number of electrons =    87
   Numerical integral  =    86.941029730943
   Relative error      =    -0.0677819185 %
Recomputing EXC -3344.564882 -3354.729386 -3354.543229 
 Inaccurate integrated density:
   Number of electrons =    87
   Numerical integral  =    86.940977701909
   Relative error      =    -0.0678417219 %
   49   -3354.8689968230      5.63E-01
 Inaccurate integrated density:
   Number of electrons =    87
   Numerical integral  =    86.950026216708
   Relative error      =    -0.0574411302 %
 Inaccurate integrated density:
   Number of electrons =    87
   Numerical integral  =    86.941046300224
   Relative error      =    -0.0677628733 %
Recomputing EXC -3344.967192 -3355.104003 -3354.868997 
 Inaccurate integrated density:
   Number of electrons =    87
   Numerical integral  =    86.940978225290
   Relative error      =    -0.0678411204 %
Recomputing EXC -3354.793458 -3354.870790 -3354.868997 
 Inaccurate integrated density:
   Number of electrons =    87
   Numerical integral  =    86.940977705898
   Relative error      =    -0.0678417174 %
Recomputing EXC -3354.868420 -3354.869011 -3354.868997 
   50   -3354.8684204348      5.63E-01 Done RCA. Switching to DIIS
 Inaccurate integrated density:
   Number of electrons =    87
   Numerical integral  =    86.950026210208
   Relative error      =    -0.0574411377 %
   51   -2022.5798676430      1.62E+00
 Inaccurate integrated density:
   Number of electrons =    87
   Numerical integral  =    86.947842459513
   Relative error      =    -0.0599511960 %
   52   -2368.2048033486      1.54E+00
 Inaccurate integrated density:
   Number of electrons =    87
   Numerical integral  =    86.947638302403
   Relative error      =    -0.0601858593 %
   53   -1360.5064746375      6.33E-01
   54   -1104.4120011108      8.50E-02
   55   -1099.9544364692      3.33E-02
   56   -1098.7624447903      1.09E-01
   57   -1105.5533132658      9.31E-02
   58   -1100.5157600873      7.17E-02
   59   -1104.3505018171      1.66E-02
   60   -1102.1984241946      1.12E-02
   61   -1103.2983732863      1.02E-02
   62   -1109.8458002188      3.37E-02
   63   -1109.4304429944      3.90E-02
 Inaccurate integrated density:
   Number of electrons =    87
   Numerical integral  =    86.977888579696
   Relative error      =    -0.0254154256 %
   64   -1114.1631983671      2.33E-02
 Inaccurate integrated density:
   Number of electrons =    87
   Numerical integral  =    86.970019891714
   Relative error      =    -0.0344598946 %
   65   -1105.8041927539      2.35E-02
 Inaccurate integrated density:
   Number of electrons =    87
   Numerical integral  =    86.962266962992
   Relative error      =    -0.0433713069 %
   66   -1294.4940762725      2.66E-01
 Inaccurate integrated density:
   Number of electrons =    87
   Numerical integral  =    86.963991371935
   Relative error      =    -0.0413892277 %
   67   -2055.9975083274      1.38E+00
 Inaccurate integrated density:
   Number of electrons =    87
   Numerical integral  =    86.963977942202
   Relative error      =    -0.0414046641 %
   68   -1103.1663634795      2.05E-02
 Inaccurate integrated density:
   Number of electrons =    87
   Numerical integral  =    86.964017569302
   Relative error      =    -0.0413591157 %
   69   -1103.4263203493      1.72E-02
 Inaccurate integrated density:
   Number of electrons =    87
   Numerical integral  =    86.973980311649
   Relative error      =    -0.0299076878 %
   70   -1102.6748043362      6.00E-03
 Inaccurate integrated density:
   Number of electrons =    87
   Numerical integral  =    86.972596812088
   Relative error      =    -0.0314979171 %
   71   -1103.1048208639      5.06E-03
 Inaccurate integrated density:
   Number of electrons =    87
   Numerical integral  =    86.972801933292
   Relative error      =    -0.0312621456 %
   72   -1103.2229796753      5.86E-03
 Inaccurate integrated density:
   Number of electrons =    87
   Numerical integral  =    86.963061779217
   Relative error      =    -0.0424577250 %
   73   -1101.9380145662      8.00E-03
 Inaccurate integrated density:
   Number of electrons =    87
   Numerical integral  =    86.962834026383
   Relative error      =    -0.0427195099 %
   74   -1101.8651877783      6.82E-03
 Inaccurate integrated density:
   Number of electrons =    87
   Numerical integral  =    86.973765420655
   Relative error      =    -0.0301546889 %
   75   -1102.9462557383      6.68E-03
 Inaccurate integrated density:
   Number of electrons =    87
   Numerical integral  =    86.974304262994
   Relative error      =    -0.0295353299 %
   76   -1102.9135219755      6.35E-03
 Inaccurate integrated density:
   Number of electrons =    87
   Numerical integral  =    86.974339141233
   Relative error      =    -0.0294952400 %
   77   -1102.8324757228      6.19E-03
 Inaccurate integrated density:
   Number of electrons =    87
   Numerical integral  =    86.974832918026
   Relative error      =    -0.0289276804 %
   78   -1102.8023951131      5.99E-03
 Inaccurate integrated density:
   Number of electrons =    87
   Numerical integral  =    86.976480962506
   Relative error      =    -0.0270333764 %
   79   -1102.8903634523      4.97E-03
 Inaccurate integrated density:
   Number of electrons =    87
   Numerical integral  =    86.975183037095
   Relative error      =    -0.0285252447 %
   80   -1102.8466026395      5.18E-03
 Inaccurate integrated density:
   Number of electrons =    87
   Numerical integral  =    86.975290746860
   Relative error      =    -0.0284014404 %
   81   -1102.8217514579      5.35E-03
 Inaccurate integrated density:
   Number of electrons =    87
   Numerical integral  =    86.975545378481
   Relative error      =    -0.0281087604 %
   82   -1102.7282059062      5.92E-03
   83   -1103.5533019810      6.01E-03
 Inaccurate integrated density:
   Number of electrons =    87
   Numerical integral  =    86.975451406734
   Relative error      =    -0.0282167739 %
   84   -1103.1826289619      6.30E-03
   85   -1103.9877767891      4.32E-03
   86   -1103.8630178397      4.57E-03
   87   -1103.7164655189      5.26E-03
   88   -1104.2963499739      2.76E-03
   89   -1104.1656714584      2.99E-03
   90   -1104.1866177300      2.79E-03
   91   -1104.1871103154      2.79E-03
   92   -1104.1875481691      2.77E-03
   93   -1104.2273589488      2.57E-03
   94   -1104.7734610158      2.27E-03
   95   -1104.8225126343      1.10E-03
   96   -1104.8280569396      7.58E-04
   97   -1104.8322085914      2.71E-04
   98   -1104.8327865847      1.11E-04
   99   -1104.8329105076      2.12E-05
  100   -1104.8329284103      1.08E-05
  101   -1104.8329346075      5.28E-06
  102   -1104.8329396161      2.75E-06
  103   -1104.8329416992      9.59E-07
  104   -1104.8329419387      3.95E-07
  105   -1104.8329419549      1.23E-07
  106   -1104.8329419654      3.53E-08
  107   -1104.8329419669      1.38E-08
  108   -1104.8329419663      3.55E-09 Convergence criterion met
 ---------------------------------------
 <S^2> = 0.7614
 SCF time:  CPU 89.93 s  wall 80.76 s
 SCF   energy in the final basis set = -1104.8329419663
 Total energy in the final basis set = -1104.8329419663
 
 --------------------------------------------------------------
             Orbital Energies (a.u.) and Symmetries
 --------------------------------------------------------------
 
 Alpha MOs, Unrestricted
 -- Occupied --                  
-88.748 -88.748 -10.061 -10.061 -10.056 -10.056 -10.048 -10.048
  1 B     1 A     2 A     2 B     3 B     3 A     4 A     4 B                  
-10.036 -10.036  -7.808  -7.808  -5.772  -5.772  -5.768  -5.768
  5 B     5 A     6 B     6 A     7 B     7 A     8 B     8 A                  
 -5.765  -5.765  -0.723  -0.701  -0.605  -0.578  -0.572  -0.536
  9 A     9 B    10 A    10 B    11 A    12 A    11 B    12 B                  
 -0.446  -0.410  -0.397  -0.370  -0.362  -0.314  -0.259  -0.252
 13 A    14 A    13 B    14 B    15 A    15 B    16 A    17 A                  
 -0.251  -0.241  -0.236  -0.209  -0.207  -0.191  -0.182  -0.109
 16 B    17 B    18 A    19 A    18 B    20 A    19 B    20 B                  
 -0.106  -0.104  -0.059   0.058
 21 A    21 B    22 A    22 B                                                  
 -- Virtual --                   
  0.094   0.097   0.109   0.114   0.122   0.129   0.137   0.151
 23 A    23 B    24 A    24 B    25 A    26 A    25 B    27 A                  
  0.154   0.157   0.167   0.176   0.177   0.177   0.185   0.190
 28 A    26 B    27 B    28 B    29 A    30 A    29 B    31 A                  
  0.199   0.204   0.211   0.215   0.215   0.220   0.229   0.230
 30 B    32 A    31 B    32 B    33 A    34 A    35 A    33 B                  
  0.233   0.235   0.243   0.244   0.248   0.256   0.263   0.264
 34 B    36 A    37 A    35 B    38 A    36 B    39 A    37 B                  
  0.274   0.276   0.280   0.293   0.294   0.296   0.302   0.304
 38 B    40 A    39 B    41 A    40 B    42 A    41 B    43 A                  
  0.315   0.327   0.328   0.338   0.340   0.345   0.359   0.364
 42 B    43 B    44 A    45 A    44 B    46 A    45 B    46 B                  
  0.385   0.391   0.393   0.395   0.407   0.440   0.447   0.453
 47 B    47 A    48 A    48 B    49 A    50 A    49 B    51 A                  
  0.454   0.463   0.486   0.488   0.512   0.541   0.564   0.598
 50 B    52 A    53 A    51 B    52 B    54 A    53 B    55 A                  
  0.614   0.653   0.671   0.672   0.699   0.711   0.714   0.755
 56 A    54 B    55 B    57 A    56 B    57 B    58 A    59 A                  
  0.758   0.780   0.804   0.811   0.821   0.831   0.845   0.858
 58 B    60 A    61 A    59 B    60 B    62 A    63 A    61 B                  
  0.869   0.874   0.900   0.905   0.905   0.911   0.930   0.947
 64 A    62 B    63 B    64 B    65 A    66 A    65 B    67 A                  
  0.974   0.985   1.003   1.040   1.053   1.100   1.101   1.103
 66 B    68 A    67 B    69 A    68 B    70 A    69 B    70 B                  
  1.108   1.115   1.116   1.122   1.135   1.143   1.158   1.188
 71 A    72 A    71 B    72 B    73 A    73 B    74 A    74 B                  
  1.200   1.222   1.230   1.246   1.254   1.263   1.271   1.318
 75 A    75 B    76 A    77 A    76 B    78 A    77 B    78 B                  
  1.325   1.344   1.381   1.425   1.482   1.507   1.509   1.516
 79 A    80 A    79 B    81 A    80 B    82 A    81 B    83 A                  
  1.521   1.545   1.603   1.634   1.659   1.701   1.739   1.841
 82 B    84 A    83 B    84 B    85 A    86 A    85 B    86 B                  
  1.844   1.916   1.983   2.005   2.046   2.049   2.059   2.085
 87 A    87 B    88 A    89 A    88 B    90 A    89 B    91 A                  
  2.094   2.104   2.169   2.170   2.211   2.213   2.277   2.294
 92 A    90 B    91 B    93 A    94 A    92 B    95 A    93 B                  
  2.317   2.350   2.363   2.403   2.405   2.461   2.515   2.517
 94 B    96 A    95 B    96 B    97 A    98 A    99 A    97 B                  
  2.579   2.596   2.616   2.622   2.640   2.666   2.674   2.694
 98 B   100 A    99 B   101 A   100 B   102 A   101 B   103 A                  
  2.736   2.740   2.763   2.807   2.843   2.863   2.938   2.941
104 A   102 B   105 A   103 B   104 B   106 A   105 B   107 A                  
  3.012   3.045   3.123   3.295   3.356   3.418   3.420   3.558
108 A   106 B   107 B   109 A   108 B   109 B   110 A   111 A                  
  3.578   3.864   3.890   4.114   4.150   4.436   4.454   4.467
110 B   112 A   111 B   113 A   112 B   114 A   113 B   115 A                  
  4.478   4.584   4.679   4.810   4.878
114 B   116 A   115 B   117 A   116 B                                          
 
 Beta MOs, Unrestricted
 -- Occupied --                  
-88.748 -88.748 -10.060 -10.059 -10.053 -10.053 -10.048 -10.048
  1 B     1 A     2 A     2 B     3 B     3 A     4 A     4 B                  
-10.034 -10.034  -7.807  -7.807  -5.771  -5.771  -5.768  -5.768
  5 B     5 A     6 B     6 A     7 B     7 A     8 B     8 A                  
 -5.763  -5.763  -0.719  -0.698  -0.600  -0.575  -0.569  -0.531
  9 A     9 B    10 A    10 B    11 A    12 A    11 B    12 B                  
 -0.439  -0.408  -0.394  -0.367  -0.360  -0.313  -0.257  -0.251
 13 A    14 A    13 B    14 B    15 A    15 B    16 A    17 A                  
 -0.248  -0.234  -0.233  -0.203  -0.200  -0.188  -0.179  -0.098
 16 B    17 B    18 A    18 B    19 A    20 A    19 B    20 B                  
 -0.098  -0.090  -0.043
 21 A    21 B    22 A                                                          
 -- Virtual --                   
  0.093   0.096   0.109   0.110   0.113   0.123   0.138   0.139
 23 A    22 B    24 A    23 B    24 B    25 A    25 B    26 A                  
  0.151   0.157   0.157   0.168   0.177   0.177   0.179   0.188
 27 A    26 B    28 A    27 B    28 B    29 A    30 A    29 B                  
  0.194   0.200   0.204   0.211   0.215   0.216   0.220   0.229
 31 A    30 B    32 A    31 B    33 A    32 B    34 A    35 A                  
  0.230   0.234   0.236   0.245   0.245   0.249   0.257   0.265
 33 B    34 B    36 A    37 A    35 B    38 A    36 B    39 A                  
  0.265   0.275   0.277   0.281   0.294   0.295   0.297   0.304
 37 B    38 B    40 A    39 B    41 A    40 B    42 A    41 B                  
  0.309   0.315   0.327   0.328   0.339   0.341   0.346   0.359
 43 A    42 B    43 B    44 A    45 A    44 B    46 A    45 B                  
  0.365   0.386   0.392   0.393   0.396   0.407   0.441   0.448
 46 B    47 B    47 A    48 A    48 B    49 A    50 A    49 B                  
  0.456   0.457   0.463   0.487   0.488   0.515   0.542   0.567
 50 B    51 A    52 A    53 A    51 B    52 B    54 A    53 B                  
  0.600   0.616   0.655   0.673   0.674   0.702   0.713   0.717
 55 A    56 A    54 B    55 B    57 A    56 B    57 B    58 A                  
  0.758   0.760   0.782   0.814   0.814   0.832   0.834   0.849
 59 A    58 B    60 A    61 A    59 B    60 B    62 A    63 A                  
  0.861   0.873   0.877   0.903   0.908   0.909   0.914   0.932
 61 B    64 A    62 B    63 B    65 A    64 B    66 A    65 B                  
  0.948   0.981   0.992   1.009   1.042   1.055   1.102   1.102
 67 A    66 B    68 A    67 B    69 A    68 B    69 B    70 A                  
  1.105   1.114   1.115   1.117   1.123   1.136   1.145   1.160
 70 B    71 A    72 A    71 B    72 B    73 A    73 B    74 A                  
  1.190   1.201   1.225   1.234   1.249   1.257   1.264   1.275
 74 B    75 A    75 B    76 A    77 A    76 B    78 A    77 B                  
  1.319   1.328   1.347   1.384   1.428   1.485   1.512   1.515
 78 B    79 A    80 A    79 B    81 A    80 B    82 A    81 B                  
  1.519   1.524   1.548   1.605   1.637   1.660   1.707   1.744
 83 A    82 B    84 A    83 B    84 B    85 A    86 A    85 B                  
  1.851   1.854   1.925   1.985   2.007   2.047   2.054   2.060
 86 B    87 A    87 B    88 A    89 A    88 B    90 A    89 B                  
  2.088   2.097   2.109   2.173   2.173   2.215   2.216   2.284
 91 A    92 A    90 B    91 B    93 A    92 B    94 A    95 A                  
  2.303   2.322   2.358   2.369   2.407   2.410   2.465   2.517
 93 B    94 B    96 A    95 B    96 B    97 A    98 A    99 A                  
  2.519   2.584   2.599   2.618   2.625   2.642   2.667   2.678
 97 B    98 B   100 A    99 B   101 A   100 B   102 A   101 B                  
  2.699   2.739   2.744   2.767   2.809   2.845   2.866   2.941
103 A   104 A   102 B   105 A   103 B   104 B   106 A   105 B                  
  2.944   3.014   3.047   3.125   3.296   3.357   3.418   3.420
107 A   108 A   106 B   107 B   109 A   108 B   109 B   110 A                  
  3.559   3.579   3.865   3.891   4.116   4.152   4.441   4.457
111 A   110 B   112 A   111 B   113 A   112 B   114 A   113 B                  
  4.468   4.480   4.589   4.685   4.813   4.881
115 A   114 B   116 A   115 B   117 A   116 B                                  
 --------------------------------------------------------------
 
          Ground-State Mulliken Net Atomic Charges

     Atom                 Charge (a.u.)    Spin (a.u.)
  --------------------------------------------------------
      1 S                    -0.221392       0.133575
      2 C                    -0.103697       0.225972
      3 C                    -0.321544      -0.065794
      4 C                     0.105604       0.195188
      5 C                    -0.270936       0.020615
      6 H                     0.094246      -0.000193
      7 C                    -0.270936       0.020615
      8 S                    -0.221392       0.133575
      9 C                     0.105604       0.195188
     10 C                    -0.103697       0.225972
     11 C                    -0.321544      -0.065794
     12 H                     0.074085       0.002705
     13 H                     0.143634      -0.012067
     14 H                     0.074085       0.002705
     15 H                     0.143634      -0.012067
     16 H                     0.094246      -0.000193
  --------------------------------------------------------
  Sum of atomic charges =    -1.000000
  Sum of spin   charges =     1.000000

 -----------------------------------------------------------------
                    Cartesian Multipole Moments
 -----------------------------------------------------------------
    Charge (ESU x 10^10)
                -4.8032
    Dipole Moment (Debye)
         X       0.0000      Y      -0.0000      Z      -0.4516
       Tot       0.4516
    Quadrupole Moments (Debye-Ang)
        XX     -99.5432     XY       0.5117     YY     -86.7211
        XZ      -0.0000     YZ       0.0000     ZZ     -83.9882
    Octopole Moments (Debye-Ang^2)
       XXX       0.0000    XXY       0.0000    XYY       0.0000
       YYY       0.0000    XXZ       8.6431    XYZ      -5.8729
       YYZ       2.5806    XZZ       0.0000    YZZ       0.0000
       ZZZ       1.1207
    Hexadecapole Moments (Debye-Ang^3)
      XXXX   -2476.7769   XXXY      -2.9556   XXYY    -491.7538
      XYYY     -11.2975   YYYY    -262.5317   XXXZ      -0.0000
      XXYZ      -0.0000   XYYZ      -0.0000   YYYZ      -0.0000
      XXZZ    -504.3494   XYZZ       4.5103   YYZZ    -141.4709
      XZZZ      -0.0000   YZZZ      -0.0000   ZZZZ    -601.9923
 -----------------------------------------------------------------
 Calculating analytic gradient of the SCF energy
 Gradient of SCF Energy
            1           2           3           4           5           6
    1  -0.0051879   0.0013941  -0.0014451   0.0019190  -0.0083456   0.0009947
    2  -0.0023181   0.0008851   0.0036032   0.0068930  -0.0038523  -0.0016570
    3  -0.0023560  -0.0026343   0.0034797  -0.0004913   0.0037346  -0.0009698
            7           8           9          10          11          12
    1   0.0083456   0.0051879  -0.0019190  -0.0013941   0.0014451   0.0000503
    2   0.0038523   0.0023181  -0.0068930  -0.0008851  -0.0036032   0.0003869
    3   0.0037346  -0.0023560  -0.0004913  -0.0026343   0.0034797  -0.0000107
           13          14          15          16
    1  -0.0002047  -0.0000503   0.0002047  -0.0009947
    2  -0.0025973  -0.0003869   0.0025973   0.0016570
    3  -0.0007522  -0.0000107  -0.0007522  -0.0009698
 Max gradient component =       8.346E-03
 RMS gradient           =       3.141E-03
 Gradient time:  CPU 1.85 s  wall 1.85 s
 Geometry Optimization Parameters
   NAtoms,    NIC,     NZ,  NCons,   NDum,   NFix, NCnnct, MaxDiis
       16     111       0       1       0       0       0       0


** CONSTRAINED OPTIMIZATION IN DELOCALIZED INTERNAL COORDINATES **
   Searching for a Minimum

   Optimization Cycle:   1

                       Coordinates (Angstroms)
     ATOM                X               Y               Z
      1  S         1.6591183049   -0.5541883786    1.0595068574
      2  C         3.1836392163   -0.1028914370    0.2864594679
      3  C         2.9517183278    0.4623500373   -0.9536603204
      4  C         1.5896190031    0.5499885674   -1.3131845281
      5  C         0.7029805341    0.0412528314   -0.3354590118
      6  H         1.2381061829    0.9681687920   -2.2503979168
      7  C        -0.7029805341   -0.0412528314   -0.3354590118
      8  S        -1.6591183049    0.5541883786    1.0595068574
      9  C        -1.5896190031   -0.5499885674   -1.3131845281
     10  C        -3.1836392163    0.1028914370    0.2864594679
     11  C        -2.9517183278   -0.4623500373   -0.9536603204
     12  H        -3.7575260581   -0.8096892496   -1.5961498814
     13  H         4.1232686269   -0.2843084530    0.7895041930
     14  H         3.7575260581    0.8096892496   -1.5961498814
     15  H        -4.1232686269    0.2843084530    0.7895041930
     16  H        -1.2381061829   -0.9681687920   -2.2503979168
   Point Group: c2    Number of degrees of freedom:    22


   Energy is  -1104.832941966

              Constraints and their Current Values
                                        Value     Constraint
   Dihedral:        4   5   7   9       50.000       50.000

 Attempting to Generate Delocalized Internal Coordinates

 21 Hessian modes will be used to form the next step
  Hessian Eigenvalues:
     0.045000    0.045000    0.045000    0.045000    0.045000    0.045000
     0.160000    0.160000    0.160000    0.221184    0.237470    0.250000
     0.264210    0.283931    0.350974    0.354198    0.358566    0.414224
     0.425056    0.442595    0.471396

 Minimum Search - Taking Simple RFO Step
 Searching for Lamda that Minimizes Along All modes
 Value Taken    Lamda =  -0.00344570
 Step Taken.  Stepsize is  0.231433

                             Maximum     Tolerance    Cnvgd?
         Gradient           0.010679      0.000300      NO
         Displacement       0.182743      0.001200      NO
         Energy change     *********      0.000001      NO


 New Cartesian Coordinates Obtained by Inverse Iteration

 Displacement from previous Coordinates is:  0.409105
 ----------------------------------------------------------------
             Standard Nuclear Orientation (Angstroms)
    I     Atom           X                Y                Z
 ----------------------------------------------------------------
    1      S       1.6851852371    -0.5169354051     1.0879697421
    2      C       3.2005938362    -0.0801540857     0.2944907463
    3      C       2.9588892673     0.4173153625    -0.9739619564
    4      C       1.5913721543     0.5031313196    -1.3176753384
    5      C       0.7103949828     0.0186946898    -0.3288578435
    6      H       1.2266635375     0.9129847315    -2.2537327609
    7      C      -0.7103949828    -0.0186946898    -0.3288578435
    8      S      -1.6851852371     0.5169354051     1.0879697421
    9      C      -1.5913721543    -0.5031313196    -1.3176753384
   10      C      -3.2005938362     0.0801540857     0.2944907463
   11      C      -2.9588892673    -0.4173153625    -0.9739619564
   12      H      -3.7572988318    -0.7563763443    -1.6303470137
   13      H       4.1436118396    -0.2043913173     0.8087332842
   14      H       3.7572988318     0.7563763443    -1.6303470137
   15      H      -4.1436118396     0.2043913173     0.8087332842
   16      H      -1.2266635375    -0.9129847315    -2.2537327609
 ----------------------------------------------------------------
 Molecular Point Group                 C2    NOp =  2
 Largest Abelian Subgroup              C2    NOp =  2
 Nuclear Repulsion Energy =   623.7904442027 hartrees
 There are       44 alpha and       43 beta electrons
 Applying Cartesian multipole field
    Component          Value
    ---------          -----
     (2,0,0)        1.00000E-11
     (0,2,0)        2.00000E-11
     (0,0,2)       -3.00000E-11
 Nucleus-field energy     =     0.0000000067 hartrees
 Requested basis set is 6-31++G(d,p)
 There are 76 shells and 234 basis functions
 A cutoff of  1.0D-12 yielded   2521 shell pairs
 There are     24853 function pairs
 Smallest overlap matrix eigenvalue = 1.15E-06
 No. of orbitals has changed due to linear dependencies.  Generating new SCF guess.
 Guess from superposition of atomic densities
 Warning:  Energy on first SCF cycle will be non-variational
 An unrestricted hybrid HF-DFT SCF calculation will be
 performed using Relaxed Constraint Minimization + Pulay DIIS
 Exchange:     0.2000 Hartree-Fock + 0.0800 Slater + 0.7200 B88
 Correlation:  0.1900 VWN1RPA + 0.8100 LYP
 Using SG-1 standard quadrature grid
 SCF converges when DIIS error is below 1.0E-08
 Geometry optimization detected.  Setting ReadMinima to 0
 Setting SaveMinima to 0
 Inaccurate integrated density:
   Number of electrons =    87
   Numerical integral  =    86.000072793389
   Relative error      =    -1.1493416168 %
 Inaccurate integrated density:
   Number of electrons =    87
   Numerical integral  =    86.000072793389
   Relative error      =    -1.1493416168 %
 ---------------------------------------
  Cycle       Energy         DIIS Error
 ---------------------------------------
    1   -1106.9741523407      4.26E-02
    2   -1104.5970467608      5.25E-03
    3   -1104.6818631734      1.77E-03
    4   -1104.8069006589      1.66E-03
    5   -1104.8169419836      3.83E-04 Done RCA. Switching to DIIS
    6   -1104.8338355273      4.37E-04
    7   -1104.8353813245      5.68E-05
    8   -1104.8354282222      2.58E-05
    9   -1104.8354453048      6.29E-06
   10   -1104.8354554490      3.51E-06
   11   -1104.8354574471      1.70E-06
   12   -1104.8354587320      1.74E-06
   13   -1104.8354593214      6.74E-07
   14   -1104.8354593725      3.18E-07
   15   -1104.8354593788      1.36E-07
   16   -1104.8354593804      6.78E-08
   17   -1104.8354593811      3.47E-08
   18   -1104.8354593813      1.96E-08
   19   -1104.8354593814      9.39E-09 Convergence criterion met
 ---------------------------------------
 <S^2> = 0.7617
 SCF time:  CPU 14.11 s  wall 12.61 s
 SCF   energy in the final basis set = -1104.8354593814
 Total energy in the final basis set = -1104.8354593814
 
 --------------------------------------------------------------
             Orbital Energies (a.u.) and Symmetries
 --------------------------------------------------------------
 
 Alpha MOs, Unrestricted
 -- Occupied --                  
-88.749 -88.749 -10.064 -10.063 -10.057 -10.057 -10.048 -10.048
  1 B     1 A     2 A     2 B     3 B     3 A     4 B     4 A                  
-10.036 -10.036  -7.808  -7.808  -5.772  -5.772  -5.769  -5.769
  5 B     5 A     6 B     6 A     7 B     7 A     8 B     8 A                  
 -5.765  -5.765  -0.722  -0.702  -0.604  -0.579  -0.572  -0.536
  9 A     9 B    10 A    10 B    11 A    12 A    11 B    12 B                  
 -0.446  -0.410  -0.398  -0.370  -0.362  -0.315  -0.260  -0.252
 13 A    14 A    13 B    14 B    15 A    15 B    16 A    17 A                  
 -0.250  -0.240  -0.236  -0.209  -0.209  -0.191  -0.181  -0.111
 16 B    17 B    18 A    18 B    19 A    20 A    19 B    20 B                  
 -0.105  -0.104  -0.060   0.056
 21 A    21 B    22 A    22 B                                                  
 -- Virtual --                   
  0.093   0.096   0.109   0.114   0.123   0.131   0.138   0.150
 23 A    23 B    24 A    24 B    25 A    26 A    25 B    27 A                  
  0.152   0.156   0.168   0.175   0.175   0.177   0.181   0.192
 28 A    26 B    27 B    29 A    28 B    30 A    29 B    31 A                  
  0.196   0.205   0.208   0.212   0.216   0.221   0.228   0.229
 30 B    32 A    31 B    32 B    33 A    34 A    33 B    35 A                  
  0.231   0.234   0.243   0.244   0.248   0.257   0.260   0.266
 34 B    36 A    37 A    35 B    38 A    36 B    39 A    37 B                  
  0.273   0.275   0.279   0.288   0.293   0.298   0.299   0.302
 40 A    38 B    39 B    40 B    41 A    42 A    41 B    43 A                  
  0.308   0.325   0.326   0.335   0.336   0.344   0.349   0.364
 42 B    43 B    44 A    45 A    44 B    46 A    45 B    46 B                  
  0.371   0.388   0.391   0.396   0.406   0.440   0.446   0.450
 47 B    47 A    48 B    48 A    49 A    50 A    49 B    50 B                  
  0.453   0.462   0.462   0.487   0.493   0.512   0.540   0.581
 51 A    52 A    51 B    53 A    52 B    53 B    54 A    54 B                  
  0.596   0.614   0.651   0.670   0.672   0.707   0.710   0.714
 55 A    56 A    55 B    56 B    57 A    57 B    58 B    58 A                  
  0.756   0.762   0.776   0.804   0.811   0.821   0.827   0.845
 59 A    59 B    60 A    61 A    60 B    61 B    62 A    63 A                  
  0.857   0.869   0.874   0.895   0.902   0.903   0.904   0.936
 62 B    64 A    63 B    64 B    65 B    65 A    66 A    66 B                  
  0.947   0.972   0.984   1.002   1.039   1.051   1.097   1.100
 67 A    67 B    68 A    68 B    69 A    69 B    70 A    70 B                  
  1.102   1.110   1.116   1.118   1.135   1.144   1.155   1.162
 71 B    71 A    72 A    72 B    73 A    73 B    74 A    74 B                  
  1.191   1.195   1.228   1.229   1.246   1.253   1.262   1.268
 75 B    75 A    76 B    76 A    77 A    77 B    78 A    78 B                  
  1.322   1.342   1.369   1.397   1.420   1.479   1.505   1.511
 79 A    80 A    79 B    80 B    81 A    81 B    82 A    82 B                  
  1.519   1.521   1.550   1.598   1.629   1.652   1.700   1.741
 83 A    83 B    84 A    84 B    85 B    85 A    86 A    86 B                  
  1.839   1.844   1.892   1.975   2.013   2.046   2.050   2.061
 87 B    87 A    88 B    88 A    89 A    90 A    89 B    90 B                  
  2.087   2.098   2.108   2.163   2.168   2.207   2.218   2.273
 91 A    92 A    91 B    93 A    92 B    93 B    94 A    95 A                  
  2.295   2.320   2.335   2.364   2.399   2.405   2.460   2.515
 94 B    95 B    96 A    96 B    97 A    97 B    98 A    99 A                  
  2.518   2.578   2.599   2.609   2.626   2.641   2.670   2.670
 98 B    99 B   100 A   101 A   100 B   101 B   102 B   102 A                  
  2.692   2.734   2.745   2.760   2.811   2.838   2.865   2.937
103 A   104 A   103 B   105 A   104 B   105 B   106 A   107 A                  
  2.937   3.015   3.041   3.117   3.294   3.353   3.417   3.419
106 B   108 A   107 B   108 B   109 A   109 B   110 B   110 A                  
  3.556   3.576   3.862   3.889   4.110   4.149   4.434   4.465
111 A   111 B   112 A   112 B   113 A   113 B   114 A   115 A                  
  4.480   4.489   4.579   4.685   4.808   4.871
114 B   115 B   116 A   116 B   117 A   117 B                                  
 
 Beta MOs, Unrestricted
 -- Occupied --                  
-88.749 -88.749 -10.062 -10.061 -10.054 -10.054 -10.049 -10.049
  1 B     1 A     2 A     2 B     3 B     3 A     4 B     4 A                  
-10.034 -10.034  -7.808  -7.808  -5.772  -5.772  -5.769  -5.769
  5 B     5 A     6 B     6 A     7 B     7 A     8 B     8 A                  
 -5.764  -5.764  -0.718  -0.698  -0.598  -0.575  -0.568  -0.532
  9 A     9 B    10 A    10 B    11 A    12 A    11 B    12 B                  
 -0.439  -0.408  -0.394  -0.367  -0.360  -0.314  -0.258  -0.251
 13 A    14 A    13 B    14 B    15 A    15 B    16 A    17 A                  
 -0.248  -0.233  -0.232  -0.205  -0.200  -0.188  -0.178  -0.098
 16 B    18 A    17 B    18 B    19 A    20 A    19 B    20 B                  
 -0.097  -0.093  -0.043
 21 A    21 B    22 A                                                          
 -- Virtual --                   
  0.093   0.096   0.109   0.109   0.113   0.124   0.138   0.140
 23 A    22 B    23 B    24 A    24 B    25 A    25 B    26 A                  
  0.151   0.156   0.156   0.168   0.176   0.177   0.177   0.185
 27 A    26 B    28 A    27 B    28 B    29 A    30 A    29 B                  
  0.195   0.197   0.205   0.208   0.213   0.216   0.222   0.229
 31 A    30 B    32 A    31 B    32 B    33 A    34 A    33 B                  
  0.229   0.233   0.235   0.245   0.245   0.249   0.258   0.262
 35 A    34 B    36 A    37 A    35 B    38 A    36 B    39 A                  
  0.267   0.275   0.276   0.280   0.289   0.295   0.298   0.301
 37 B    40 A    38 B    39 B    40 B    41 A    42 A    41 B                  
  0.307   0.308   0.325   0.326   0.335   0.338   0.345   0.349
 43 A    42 B    43 B    44 A    45 A    44 B    46 A    45 B                  
  0.365   0.371   0.389   0.392   0.396   0.407   0.441   0.448
 46 B    47 B    47 A    48 B    48 A    49 A    50 A    49 B                  
  0.451   0.457   0.462   0.464   0.488   0.493   0.515   0.541
 50 B    51 A    52 A    51 B    53 A    52 B    53 B    54 A                  
  0.582   0.598   0.615   0.654   0.672   0.674   0.710   0.712
 54 B    55 A    56 A    55 B    56 B    57 A    57 B    58 B                  
  0.717   0.758   0.765   0.777   0.814   0.814   0.831   0.832
 58 A    59 A    59 B    60 A    61 A    60 B    62 A    61 B                  
  0.848   0.860   0.872   0.877   0.899   0.906   0.906   0.908
 63 A    62 B    64 A    63 B    64 B    65 B    65 A    66 A                  
  0.939   0.948   0.979   0.991   1.008   1.041   1.053   1.099
 66 B    67 A    67 B    68 A    68 B    69 A    69 B    70 A                  
  1.101   1.105   1.113   1.117   1.119   1.136   1.146   1.157
 70 B    71 B    71 A    72 A    72 B    73 A    73 B    74 A                  
  1.163   1.193   1.197   1.232   1.232   1.248   1.257   1.264
 74 B    75 B    75 A    76 B    76 A    77 A    77 B    78 A                  
  1.271   1.325   1.346   1.372   1.399   1.424   1.482   1.510
 78 B    79 A    80 A    79 B    80 B    81 A    81 B    82 A                  
  1.516   1.522   1.524   1.553   1.600   1.632   1.653   1.706
 82 B    83 A    83 B    84 A    84 B    85 B    85 A    86 A                  
  1.746   1.849   1.854   1.900   1.977   2.015   2.051   2.052
 86 B    87 B    87 A    88 B    88 A    89 A    90 A    89 B                  
  2.063   2.089   2.102   2.112   2.166   2.172   2.209   2.223
 90 B    91 A    92 A    91 B    93 A    92 B    93 B    94 A                  
  2.280   2.304   2.325   2.344   2.371   2.403   2.409   2.464
 95 A    94 B    95 B    96 A    96 B    97 A    97 B    98 A                  
  2.517   2.520   2.583   2.601   2.612   2.627   2.642   2.672
 99 A    98 B    99 B   100 A   101 A   100 B   101 B   102 A                  
  2.674   2.697   2.736   2.749   2.764   2.813   2.840   2.868
102 B   103 A   104 A   103 B   105 A   104 B   105 B   106 A                  
  2.939   2.940   3.017   3.043   3.118   3.295   3.354   3.417
107 A   106 B   108 A   107 B   108 B   109 A   109 B   110 B                  
  3.419   3.558   3.577   3.863   3.890   4.112   4.151   4.439
110 A   111 A   111 B   112 A   112 B   113 A   113 B   114 A                  
  4.466   4.483   4.492   4.584   4.690   4.810   4.874
115 A   114 B   115 B   116 A   116 B   117 A   117 B                          
 --------------------------------------------------------------
 
          Ground-State Mulliken Net Atomic Charges

     Atom                 Charge (a.u.)    Spin (a.u.)
  --------------------------------------------------------
      1 S                    -0.212237       0.129001
[...]
      4 C                    -0.069359       0.194661
      5 C                     0.014456       0.028876
      6 H                     0.097606      -0.005147
      7 C                     0.014456       0.028876
      8 S                    -0.238735       0.119639
      9 C                    -0.069359       0.194661
     10 C                    -0.185252       0.239487
     11 C                    -0.332029      -0.068774
     12 H                     0.070582       0.003270
     13 H                     0.142731      -0.012011
     14 H                     0.070582       0.003270
     15 H                     0.142731      -0.012011
     16 H                     0.097606      -0.005147
  --------------------------------------------------------
  Sum of atomic charges =    -1.000000
  Sum of spin   charges =     1.000000

 -----------------------------------------------------------------
                    Cartesian Multipole Moments
 -----------------------------------------------------------------
    Charge (ESU x 10^10)
                -4.8032
    Dipole Moment (Debye)
         X      -0.0000      Y       0.0000      Z      -0.4162
       Tot       0.4162
    Quadrupole Moments (Debye-Ang)
        XX     -99.8890     XY       1.8939     YY     -86.6253
        XZ      -0.0000     YZ       0.0000     ZZ     -83.7931
    Octopole Moments (Debye-Ang^2)
       XXX      -0.0000    XXY       0.0000    XYY      -0.0000
       YYY       0.0000    XXZ       8.6610    XYZ      -4.1707
       YYZ       0.9955    XZZ      -0.0000    YZZ      -0.0000
       ZZZ      -2.1605
    Hexadecapole Moments (Debye-Ang^3)
      XXXX   -2493.5106   XXXY      14.2770   XXYY    -490.1331
      XYYY     -21.0628   YYYY    -200.5086   XXXZ       0.0000
      XXYZ      -0.0000   XYYZ      -0.0000   YYYZ       0.0000
      XXZZ    -504.2228   XYZZ       3.0585   YYZZ    -146.8037
      XZZZ      -0.0000   YZZZ       0.0000   ZZZZ    -644.1515
 -----------------------------------------------------------------
 Calculating analytic gradient of the SCF energy
 Gradient of SCF Energy
            1           2           3           4           5           6
    1   0.0000405  -0.0000112   0.0000228   0.0003150  -0.0007572  -0.0000025
    2  -0.0000219  -0.0000599   0.0000425   0.0074381  -0.0165592  -0.0000263
    3   0.0000063  -0.0000025  -0.0000065   0.0035026  -0.0034897  -0.0000114
            7           8           9          10          11          12
    1   0.0007572  -0.0000405  -0.0003150   0.0000112  -0.0000228  -0.0000013
    2   0.0165592   0.0000219  -0.0074381   0.0000599  -0.0000425   0.0000447
    3  -0.0034897   0.0000063   0.0035026  -0.0000025  -0.0000065  -0.0000131
           13          14          15          16
    1  -0.0000061   0.0000013   0.0000061   0.0000025
    2   0.0000408  -0.0000447  -0.0000408   0.0000263
    3   0.0000141  -0.0000131   0.0000141  -0.0000114
 Max gradient component =       1.656E-02
 RMS gradient           =       3.844E-03
 Gradient time:  CPU 1.86 s  wall 1.86 s
 Geometry Optimization Parameters
   NAtoms,    NIC,     NZ,  NCons,   NDum,   NFix, NCnnct, MaxDiis
       16     111       0       1       0       0       0       0

 Cartesian Hessian Update
 Hessian Updated using BFGS Update


** CONSTRAINED OPTIMIZATION IN DELOCALIZED INTERNAL COORDINATES **
   Searching for a Minimum

   Optimization Cycle:  10

                       Coordinates (Angstroms)
     ATOM                X               Y               Z
      1  S         1.6462105196   -0.3845014637    1.1316412242
      2  C         3.1785616734   -0.0188731271    0.3379329799
      3  C         2.9692332876    0.3561379839   -0.9784544965
      4  C         1.6128573048    0.3884945417   -1.3653471885
      5  C         0.7087996907   -0.0344865871   -0.3651146079
      6  H         1.2676477599    0.7394167214   -2.3325402336
      7  C        -0.7087996907    0.0344865871   -0.3651146079
      8  S        -1.6462105196    0.3845014637    1.1316412242
      9  C        -1.6128573048   -0.3884945417   -1.3653471885
     10  C        -3.1785616734    0.0188731271    0.3379329799
     11  C        -2.9692332876   -0.3561379839   -0.9784544965
     12  H        -3.7817408501   -0.6465945103   -1.6405498355
     13  H         4.1026351090   -0.0362413469    0.8990510176
     14  H         3.7817408501    0.6465945103   -1.6405498355
     15  H        -4.1026351090    0.0362413469    0.8990510176
     16  H        -1.2676477599   -0.7394167214   -2.3325402336
   Point Group: c2    Number of degrees of freedom:    22


   Energy is  -1104.837261160

              Constraints and their Current Values
                                        Value     Constraint
   Dihedral:        4   5   7   9       50.000       50.000
 Hessian Updated using BFGS Update

 21 Hessian modes will be used to form the next step
  Hessian Eigenvalues:
     0.007200    0.012777    0.023227    0.045066    0.046275    0.049521
     0.159650    0.160110    0.160303    0.222872    0.247966    0.257624
     0.270765    0.286064    0.351153    0.354253    0.358841    0.415833
     0.431706    0.470974    0.489587

 Minimum Search - Taking Simple RFO Step
 Searching for Lamda that Minimizes Along All modes
 Value Taken    Lamda =   0.00000000
 Step Taken.  Stepsize is  0.005957

                             Maximum     Tolerance    Cnvgd?
         Gradient           0.000079      0.000300     YES
         Displacement       0.003736      0.001200      NO
         Energy change     -0.000001      0.000001     YES

 Final energy is   -1104.83726115973     


 ******************************
 **  OPTIMIZATION CONVERGED  **
 ******************************

                       Coordinates (Angstroms)
     ATOM                X               Y               Z
      1  S         1.6462105196   -0.3845014637    1.1316412242
      2  C         3.1785616734   -0.0188731271    0.3379329799
      3  C         2.9692332876    0.3561379839   -0.9784544965
      4  C         1.6128573048    0.3884945417   -1.3653471885
      5  C         0.7087996907   -0.0344865871   -0.3651146079
      6  H         1.2676477599    0.7394167214   -2.3325402336
      7  C        -0.7087996907    0.0344865871   -0.3651146079
      8  S        -1.6462105196    0.3845014637    1.1316412242
      9  C        -1.6128573048   -0.3884945417   -1.3653471885
     10  C        -3.1785616734    0.0188731271    0.3379329799
     11  C        -2.9692332876   -0.3561379839   -0.9784544965
     12  H        -3.7817408501   -0.6465945103   -1.6405498355
     13  H         4.1026351090   -0.0362413469    0.8990510176
     14  H         3.7817408501    0.6465945103   -1.6405498355
     15  H        -4.1026351090    0.0362413469    0.8990510176
     16  H        -1.2676477599   -0.7394167214   -2.3325402336

Z-matrix Print:
$molecule
-1 2
S 
C  1 1.764017
H  2 1.081234 1 120.369520
C  2 1.384676 1 110.644410 3 175.757137 0
H  4 1.087614 2 122.556325 1 -178.529094 0
C  4 1.410847 2 114.346425 1 -1.322629 0
H  6 1.085255 4 123.891391 2 -174.699449 0
C  6 1.413046 4 114.463506 2 3.163285 0
C  8 1.419276 6 128.644799 4 -171.313056 0
C  9 1.413046 8 128.644799 6 -50.000011 0
H  10 1.085255 9 121.609734 8 6.603763 0
C  10 1.410847 9 114.463506 8 -171.313056 0
H  12 1.087614 10 123.034861 9 -179.645337 0
C  12 1.384676 10 114.346425 9 3.163285 0
H  14 1.081234 12 128.823156 10 173.977716 0
S  14 1.764017 12 110.644410 10 -1.322629 0
$end

 
 --------------------------------------------------------------
             Orbital Energies (a.u.) and Symmetries
 --------------------------------------------------------------
 
 Alpha MOs, Unrestricted
 -- Occupied --                  
-88.749 -88.749 -10.064 -10.064 -10.056 -10.056 -10.048 -10.048
  1 B     1 A     2 A     2 B     3 B     3 A     4 B     4 A                  
-10.034 -10.034  -7.808  -7.808  -5.773  -5.773  -5.769  -5.769
  5 B     5 A     6 B     6 A     7 B     7 A     8 B     8 A                  
 -5.766  -5.766  -0.722  -0.701  -0.604  -0.580  -0.571  -0.536
  9 A     9 B    10 A    10 B    11 A    12 A    11 B    12 B                  
 -0.446  -0.412  -0.396  -0.369  -0.362  -0.315  -0.261  -0.252
 13 A    14 A    13 B    14 B    15 A    15 B    16 A    17 A                  
 -0.248  -0.239  -0.237  -0.209  -0.208  -0.194  -0.178  -0.118
 16 B    17 B    18 A    18 B    19 A    20 A    19 B    20 B                  
 -0.106  -0.104  -0.055   0.052
 21 B    21 A    22 A    22 B                                                  
 -- Virtual --                   
  0.094   0.097   0.109   0.114   0.124   0.135   0.140   0.150
 23 A    23 B    24 A    24 B    25 A    26 A    25 B    27 A                  
  0.154   0.157   0.170   0.171   0.175   0.177   0.181   0.195
 28 A    26 B    29 A    27 B    28 B    30 A    29 B    31 A                  
  0.201   0.203   0.206   0.214   0.217   0.224   0.228   0.230
 30 B    31 B    32 A    32 B    33 A    34 A    35 A    33 B                  
  0.233   0.234   0.244   0.247   0.249   0.255   0.261   0.271
 34 B    36 A    37 A    35 B    38 A    39 A    36 B    40 A                  
  0.272   0.277   0.280   0.285   0.292   0.300   0.300   0.307
 37 B    38 B    39 B    40 B    41 A    41 B    42 A    43 A                  
  0.311   0.321   0.330   0.330   0.338   0.340   0.344   0.358
 42 B    44 A    43 B    45 A    44 B    46 A    45 B    46 B                  
  0.379   0.379   0.399   0.400   0.406   0.439   0.440   0.449
 47 B    47 A    48 B    48 A    49 A    50 A    49 B    50 B                  
  0.450   0.461   0.469   0.486   0.487   0.513   0.536   0.575
 51 A    52 A    51 B    53 A    52 B    53 B    54 A    54 B                  
  0.593   0.614   0.642   0.674   0.676   0.703   0.708   0.727
 55 A    56 A    55 B    57 A    56 B    57 B    58 A    58 B                  
  0.745   0.765   0.772   0.806   0.815   0.823   0.823   0.840
 59 A    60 A    59 B    61 A    60 B    61 B    62 A    63 A                  
  0.860   0.869   0.874   0.885   0.891   0.905   0.908   0.942
 62 B    64 A    63 B    64 B    65 A    66 A    65 B    67 A                  
  0.951   0.964   0.984   0.998   1.038   1.055   1.087   1.103
 66 B    67 B    68 A    68 B    69 A    69 B    70 A    70 B                  
  1.105   1.108   1.121   1.123   1.132   1.134   1.155   1.155
 71 B    71 A    72 A    72 B    73 B    73 A    74 B    74 A                  
  1.186   1.210   1.222   1.229   1.248   1.258   1.265   1.266
 75 A    75 B    76 A    76 B    77 A    77 B    78 A    78 B                  
  1.315   1.341   1.359   1.394   1.416   1.490   1.496   1.499
 79 A    80 A    79 B    80 B    81 A    81 B    82 B    82 A                  
  1.513   1.530   1.559   1.561   1.634   1.642   1.710   1.773
 83 A    83 B    84 B    84 A    85 A    85 B    86 A    86 B                  
  1.815   1.846   1.861   1.976   2.017   2.042   2.049   2.063
 87 B    87 A    88 B    88 A    89 A    90 A    89 B    90 B                  
  2.084   2.116   2.130   2.162   2.162   2.194   2.225   2.266
 91 A    91 B    92 A    93 A    92 B    93 B    94 A    95 A                  
  2.296   2.307   2.313   2.365   2.403   2.422   2.452   2.516
 94 B    96 A    95 B    96 B    97 A    97 B    98 A    99 A                  
  2.523   2.579   2.595   2.599   2.629   2.643   2.669   2.671
 98 B    99 B   100 A   101 A   100 B   101 B   102 A   102 B                  
  2.692   2.733   2.746   2.770   2.805   2.837   2.867   2.934
103 A   104 A   103 B   105 A   104 B   105 B   106 A   106 B                  
  2.935   3.014   3.042   3.110   3.294   3.352   3.417   3.418
107 A   108 A   107 B   108 B   109 A   109 B   110 B   110 A                  
  3.554   3.573   3.860   3.888   4.100   4.161   4.431   4.464
111 A   111 B   112 A   112 B   113 A   113 B   114 A   115 A                  
  4.481   4.485   4.578   4.685   4.807   4.867
114 B   115 B   116 A   116 B   117 A   117 B                                  
 
 Beta MOs, Unrestricted
 -- Occupied --                  
-88.749 -88.749 -10.063 -10.062 -10.053 -10.053 -10.049 -10.049
  1 B     1 A     2 A     2 B     3 B     3 A     4 B     4 A                  
-10.033 -10.033  -7.808  -7.808  -5.772  -5.772  -5.769  -5.769
  5 B     5 A     6 B     6 A     7 B     7 A     8 B     8 A                  
 -5.764  -5.764  -0.719  -0.698  -0.599  -0.576  -0.568  -0.531
  9 A     9 B    10 A    10 B    11 A    12 A    11 B    12 B                  
 -0.439  -0.409  -0.392  -0.366  -0.360  -0.313  -0.259  -0.251
 13 A    14 A    13 B    14 B    15 A    15 B    16 A    17 A                  
 -0.246  -0.234  -0.230  -0.206  -0.199  -0.191  -0.175  -0.102
 16 B    18 A    17 B    18 B    19 A    20 A    19 B    20 B                  
 -0.097  -0.096  -0.037
 21 B    21 A    22 A                                                          
 -- Virtual --                   
  0.093   0.096   0.105   0.109   0.114   0.124   0.140   0.143
 23 A    22 B    23 B    24 A    24 B    25 A    25 B    26 A                  
  0.151   0.157   0.158   0.172   0.174   0.176   0.177   0.184
 27 A    26 B    28 A    29 A    27 B    28 B    30 A    29 B                  
  0.199   0.202   0.204   0.206   0.215   0.218   0.225   0.229
 31 A    30 B    31 B    32 A    32 B    33 A    34 A    35 A                  
  0.230   0.234   0.234   0.246   0.249   0.252   0.258   0.262
 33 B    34 B    36 A    37 A    35 B    38 A    39 A    36 B                  
  0.272   0.273   0.278   0.282   0.286   0.296   0.302   0.302
 40 A    37 B    38 B    39 B    40 B    41 A    41 B    42 A                  
  0.308   0.312   0.321   0.330   0.330   0.339   0.341   0.344
 43 A    42 B    44 A    43 B    45 A    44 B    46 A    45 B                  
  0.359   0.379   0.380   0.400   0.400   0.406   0.440   0.441
 46 B    47 A    47 B    48 B    48 A    49 A    50 A    49 B                  
  0.451   0.454   0.462   0.470   0.487   0.487   0.516   0.536
 50 B    51 A    52 A    51 B    53 A    52 B    53 B    54 A                  
  0.576   0.595   0.616   0.645   0.677   0.679   0.705   0.711
 54 B    55 A    56 A    55 B    57 A    56 B    57 B    58 A                  
  0.730   0.747   0.766   0.774   0.816   0.819   0.827   0.833
 58 B    59 A    60 A    59 B    61 A    60 B    62 A    61 B                  
  0.843   0.863   0.872   0.876   0.888   0.893   0.910   0.910
 63 A    62 B    64 A    63 B    64 B    65 A    66 A    65 B                  
  0.944   0.954   0.971   0.992   1.005   1.040   1.056   1.089
 67 A    66 B    67 B    68 A    68 B    69 A    69 B    70 A                  
  1.104   1.108   1.110   1.123   1.123   1.134   1.136   1.156
 70 B    71 B    71 A    72 B    72 A    73 B    73 A    74 B                  
  1.158   1.188   1.212   1.225   1.233   1.250   1.261   1.267
 74 A    75 A    75 B    76 A    76 B    77 A    77 B    78 A                  
  1.270   1.318   1.345   1.361   1.396   1.419   1.492   1.499
 78 B    79 A    80 A    79 B    80 B    81 A    81 B    82 B                  
  1.503   1.516   1.536   1.562   1.565   1.636   1.644   1.715
 82 A    83 A    83 B    84 B    84 A    85 A    85 B    86 A                  
  1.778   1.823   1.857   1.871   1.979   2.019   2.047   2.050
 86 B    87 B    87 A    88 B    88 A    89 A    90 A    89 B                  
  2.065   2.086   2.122   2.134   2.164   2.166   2.196   2.228
 90 B    91 A    91 B    92 A    93 A    92 B    93 B    94 A                  
  2.274   2.303   2.317   2.319   2.372   2.407   2.425   2.457
 95 A    94 B    96 A    95 B    96 B    97 A    97 B    98 A                  
  2.518   2.525   2.584   2.598   2.602   2.631   2.645   2.671
 99 A    98 B    99 B   100 A   101 A   100 B   101 B   102 A                  
  2.676   2.697   2.735   2.751   2.774   2.807   2.839   2.870
102 B   103 A   104 A   103 B   105 A   104 B   105 B   106 A                  
  2.937   2.937   3.017   3.044   3.112   3.295   3.353   3.417
106 B   107 A   108 A   107 B   108 B   109 A   109 B   110 B                  
  3.418   3.555   3.574   3.861   3.889   4.101   4.163   4.436
110 A   111 A   111 B   112 A   112 B   113 A   113 B   114 A                  
  4.466   4.485   4.488   4.584   4.690   4.810   4.870
115 A   114 B   115 B   116 A   116 B   117 A   117 B                          
 --------------------------------------------------------------
 
          Ground-State Mulliken Net Atomic Charges

     Atom                 Charge (a.u.)    Spin (a.u.)
  --------------------------------------------------------
      1 S                    -0.238735       0.119639
      2 C                    -0.185252       0.239487
      3 C                    -0.332029      -0.068774
      4 C                    -0.069359       0.194661
      5 C                     0.014456       0.028876
      6 H                     0.097606      -0.005147
      7 C                     0.014456       0.028876
      8 S                    -0.238735       0.119639
      9 C                    -0.069359       0.194661
     10 C                    -0.185252       0.239487
     11 C                    -0.332029      -0.068774
     12 H                     0.070582       0.003270
     13 H                     0.142731      -0.012011
     14 H                     0.070582       0.003270
     15 H                     0.142731      -0.012011
     16 H                     0.097606      -0.005147
  --------------------------------------------------------
  Sum of atomic charges =    -1.000000
  Sum of spin   charges =     1.000000

 -----------------------------------------------------------------
                    Cartesian Multipole Moments
 -----------------------------------------------------------------
    Charge (ESU x 10^10)
                -4.8032
    Dipole Moment (Debye)
         X      -0.0000      Y       0.0000      Z      -0.4162
       Tot       0.4162
    Quadrupole Moments (Debye-Ang)
        XX     -99.8890     XY       1.8939     YY     -86.6253
        XZ      -0.0000     YZ       0.0000     ZZ     -83.7931
    Octopole Moments (Debye-Ang^2)
       XXX      -0.0000    XXY       0.0000    XYY      -0.0000
       YYY       0.0000    XXZ       8.6610    XYZ      -4.1707
       YYZ       0.9955    XZZ      -0.0000    YZZ      -0.0000
       ZZZ      -2.1605
    Hexadecapole Moments (Debye-Ang^3)
      XXXX   -2493.5106   XXXY      14.2770   XXYY    -490.1331
      XYYY     -21.0628   YYYY    -200.5086   XXXZ       0.0000
      XXYZ      -0.0000   XYYZ      -0.0000   YYYZ       0.0000
      XXZZ    -504.2228   XYZZ       3.0585   YYZZ    -146.8037
      XZZZ      -0.0000   YZZZ       0.0000   ZZZZ    -644.1515
 -----------------------------------------------------------------
Archival summary:
1\1\nid01048\OPT\ProcedureUnspecified\BasisUnspecified\286(1-,2)\TueSep623:41:532016TueSep623:41:532016\0\\#,OPT,ProcedureUnspecified,BasisUnspecified,\\-1,2\S\C,1,1.76402\H,2,1.08123,1,120.37\C,2,1.38468,1,110.644,3,175.757,0\H,4,1.08761,2,122.556,1,-178.529,0\C,4,1.41085,2,114.346,1,-1.32263,0\H,6,1.08525,4,123.891,2,-174.699,0\C,6,1.41305,4,114.464,2,3.16328,0\C,8,1.41928,6,128.645,4,-171.313,0\C,9,1.41305,8,128.645,6,-50,0\H,10,1.08525,9,121.61,8,6.60376,0\C,10,1.41085,9,114.464,8,-171.313,0\H,12,1.08761,10,123.035,9,-179.645,0\C,12,1.38468,10,114.346,9,3.16328,0\H,14,1.08123,12,128.823,10,173.978,0\S,14,1.76402,12,110.644,10,-1.32263,0\\\@

 Total job time:  169.75s(wall), 187.49s(cpu) 
 Tue Sep  6 23:41:53 2016

        *************************************************************
        *                                                           *
        *  Thank you very much for using Q-Chem.  Have a nice day.  *
        *                                                           *
        *************************************************************


0 sent ACK to 0 
now end server 0 ... 
