srun -N 1 --ntasks-per-node 16 --cpus-per-task 4 --cpu_bind=cores --nodelist nid00866 /global/project/projectdirs/jcesr/qchem/qc44/cnl_qc441/dist/exe/qcprog.cori.haswell.exe .pt_n2_cation_120.0.in.26015.qcin.1 /global/cscratch1/sd/bwood/qchem/nx/qchem26015/
Process 2 of 16 is on nid00866 - thread support 0
Process 3 of 16 is on nid00866 - thread support 0
Process 4 of 16 is on nid00866 - thread support 0
Process 5 of 16 is on nid00866 - thread support 0
Process 6 of 16 is on nid00866 - thread support 0
Process 0 of 16 is on nid00866 - thread support 0
initial socket setup ...start
Process 1 of 16 is on nid00866 - thread support 0
Process 15 of 16 is on nid00866 - thread support 0
initial socket setup ...done 
now start server 0 ... 
nid00866 10.128.3
Q-Chem Developer Version! Running on 10.128.3.*
                  Welcome to Q-Chem
     A Quantum Leap Into The Future Of Chemistry


 Q-Chem 4.4, Q-Chem, Inc., Pleasanton, CA (2016)

 Y. Shao,  Z. Gan,  E. Epifanovsky,  A. T. B. Gilbert,  M. Wormit,  
 J. Kussmann,  A. W. Lange,  A. Behn,  J. Deng,  X. Feng,  D. Ghosh,  
 M. Goldey,  P. R. Horn,  L. D. Jacobson,  I. Kaliman,  F. Rob,  
 R. Z. Khaliullin,  T. Kus,  A. Landau,  J. Liu,  E. I. Proynov,  Y. M. Rhee,  
 R. M. Richard,  M. A. Rohrdanz,  R. P. Steele,  E. J. Sundstrom,  
 H. L. Woodcock III,  P. M. Zimmerman,  D. Zuev,  B. Albrecht,  E. Alguire,  
 B. Austin,  S. A. Baeppler,  G. J. O. Beran,  Y. A. Bernard,  
 E. J. Berquist,  K. Brandhorst,  K. B. Bravaya,  S. T. Brown,  D. Casanova,  
 C.-M. Chang,  Y. Chen,  S. H. Chien,  K. D. Closser,  M. P. Coons,  
 D. L. Crittenden,  S. Dasgupta,  M. Diedenhofen,  R. A. DiStasio Jr.,  
 H. Do,  A. D. Dutoi,  R. G. Edgar,  P.-T. Fang,  S. Fatehi,  Q. Feng,  
 L. Fusti-Molnar,  A. Ghysels,  A. Golubeva-Zadorozhnaya,  J. Gomes,  
 A. Gunina,  M. W. D. Hanson-Heine,  P. H. P. Harbach,  A. W. Hauser,  
 J. E. Herr,  E. G. Hohenstein,  Z. C. Holden,  K. Hui,  T.-C. Jagau,  H. Ji,  
 B. Kaduk,  K. Khistyaev,  Jaehoon Kim,  Jihan Kim,  R. A. King,  
 P. Klunzinger,  K. Koh,  D. Kosenkov,  T. Kowalczyk,  C. M. Krauter,  
 A. Kunitsa,  K. U. Lao,  A. Laurent,  K. V. Lawler,  J. Lee,  D. Lefrancois,  
 S. Lehtola,  S. V. Levchenko,  C. Y. Lin,  Y.-S. Lin,  F. Liu,  E. Livshits,  
 R. C. Lochan,  A. Luenser,  P. Manohar,  S. F. Manzer,  S.-P. Mao,  Y. Mao,  
 N. Mardirossian,  A. V. Marenich,  L. A. Martinez-Martinez,  S. A. Maurer,  
 N. J. Mayhall,  J.-M. Mewes,  A. F. Morrison,  K. Nanda,  T. S. Nguyen-Beck,  
 C. M. Oana,  R. Olivares-Amaya,  D. P. O'Neill,  J. A. Parkhill,  
 T. M. Perrine,  R. Peverati,  P. A. Pieniazek,  F. Plasser,  A. Prociuk,  
 D. R. Rehn,  E. Rosta,  N. J. Russ,  N. Sergueev,  S. M. Sharada,  
 S. Sharma,  D. W. Small,  A. Sodt,  T. Stauch,  T. Stein,  D. Stuck,  
 Y.-C. Su,  A. J. W. Thom,  T. Tsuchimochi,  L. Vogt,  O. Vydrov,  T. Wang,  
 M. A. Watson,  J. Wenzel,  A. White,  C. F. Williams,  V. Vanovschi,  
 K. Yao,  S. Yeganeh,  S. R. Yost,  Z.-Q. You,  I. Y. Zhang,  X. Zhang,  
 Y. Zhao,  B. R. Brooks,  G. K. L. Chan,  D. M. Chipman,  C. J. Cramer,  
 W. A. Goddard III,  M. S. Gordon,  W. J. Hehre,  A. Klamt,  
 H. F. Schaefer III,  M. W. Schmidt,  C. D. Sherrill,  D. G. Truhlar,  
 A. Warshel,  X. Xu,  A. Aspuru-Guzik,  R. Baer,  A. T. Bell,  N. A. Besley,  
 J.-D. Chai,  A. Dreuw,  B. D. Dunietz,  T. R. Furlani,  S. R. Gwaltney,  
 C.-P. Hsu,  Y. Jung,  J. Kong,  D. S. Lambrecht,  W. Liang,  C. Ochsenfeld,  
 V. A. Rassolov,  L. V. Slipchenko,  J. E. Subotnik,  T. Van Voorhis,  
 J. M. Herbert,  A. I. Krylov,  P. M. W. Gill,  M. Head-Gordon

 Contributors to earlier versions of Q-Chem not listed above: 
 R. D. Adamson,  J. Baker,  E. F. C. Byrd,  A. K. Chakraborty,  C.-L. Cheng,  
 H. Dachsel,  R. J. Doerksen,  G. Hawkins,  A. Heyden,  S. Hirata,  
 G. Kedziora,  F. J. Keil,  C. Kelley,  P. P. Korambath,  W. Kurlancheek,  
 A. M. Lee,  M. S. Lee,  D. Liotard,  I. Lotan,  P. E. Maslen,  N. Nair,  
 D. Neuhauser,  R. Olson,  B. Peters,  J. Ritchie,  N. E. Schultz,  
 N. Shenvi,  A. C. Simmonett,  K. S. Thanthiriwatte,  Q. Wu,  W. Zhang

 Please cite Q-Chem as follows:
 Y. Shao et al., Mol. Phys. 113, 184-215 (2015)
 DOI: 10.1080/00268976.2014.952696

 Q-Chem 4.4.2 for Intel X86 EM64T Linux

 Parts of Q-Chem use Armadillo 5.200.1 (Boston Tea Smuggler).
 http://arma.sourceforge.net/

 Q-Chem begins on Wed May 31 02:25:47 2017  

Host: nid00776
0

     Scratch files written to /global/cscratch1/sd/bwood/qchem/nx/qchem26015.0//
 Parallel job on  16  processors

Checking the input file for inconsistencies... 	...done.

--------------------------------------------------------------
User input:
--------------------------------------------------------------
$molecule
 1  2
 S           0.00238887        0.06077275        0.00183269
 C           1.73707619        0.03315849        0.00323229
 H           2.27612737        0.05289032        0.94042557
 C           2.24169204       -0.01546201       -1.26965798
 H           3.30285780       -0.04005365       -1.48972496
 C           1.22479222       -0.01612968       -2.26811464
 H           1.42674790       -0.02650987       -3.33334501
 C          -0.05393771        0.02880388       -1.75170966
 C          -1.32450815        0.04889988       -2.45636342
 C          -2.36849583       -0.85093337       -2.38981801
 H          -2.35207140       -1.72229863       -1.74462743
 C          -3.47246015       -0.50370086       -3.22142915
 H          -4.38251998       -1.08854539       -3.29101800
 C          -3.26879881        0.65863165       -3.91758961
 H          -3.93670542        1.15488512       -4.60832439
 S          -1.71018260        1.34129361       -3.57962005
$end


$rem
         jobtype = opt
        exchange = b3lyp
           basis = 6-31++g**
  max_scf_cycles = 150
      mem_static = 775
       mem_total = 7750
      sym_ignore = true
        symmetry = false
          thresh = 12
$end


$opt
CONSTRAINT
tors 6 8 9 10 120.0
ENDCONSTRAINT
$end

--------------------------------------------------------------
 ----------------------------------------------------------------
             Standard Nuclear Orientation (Angstroms)
    I     Atom           X                Y                Z
 ----------------------------------------------------------------
    1      S       0.0023888700     0.0607727500     0.0018326900
    2      C       1.7370761900     0.0331584900     0.0032322900
    3      H       2.2761273700     0.0528903200     0.9404255700
    4      C       2.2416920400    -0.0154620100    -1.2696579800
    5      H       3.3028578000    -0.0400536500    -1.4897249600
    6      C       1.2247922200    -0.0161296800    -2.2681146400
    7      H       1.4267479000    -0.0265098700    -3.3333450100
    8      C      -0.0539377100     0.0288038800    -1.7517096600
    9      C      -1.3245081500     0.0488998800    -2.4563634200
   10      C      -2.3684958300    -0.8509333700    -2.3898180100
   11      H      -2.3520714000    -1.7222986300    -1.7446274300
   12      C      -3.4724601500    -0.5037008600    -3.2214291500
   13      H      -4.3825199800    -1.0885453900    -3.2910180000
   14      C      -3.2687988100     0.6586316500    -3.9175896100
   15      H      -3.9367054200     1.1548851200    -4.6083243900
   16      S      -1.7101826000     1.3412936100    -3.5796200500
 ----------------------------------------------------------------
 Nuclear Repulsion Energy =   628.3641448908 hartrees
 There are       43 alpha and       42 beta electrons
 Requested basis set is 6-31++G(d,p)
 There are 76 shells and 234 basis functions

 Total QAlloc Memory Limit   7750 MB
 Mega-Array Size       758 MB
 MEM_STATIC part       775 MB
 A cutoff of  1.0D-12 yielded   2534 shell pairs
 There are     24998 function pairs

 Q-Chem warning in module /project/projectdirs/jcesr/qchem/qc44/cnl_qc441/compile/cori/qc_src/libqints/qchem/aobasis.C, line 68:

 Using reconstructed effective core potential

 
 -------------------------------------------------------
 OpenMP Integral Computing Module                       
 Release: version 1.0, May 2013, Q-Chem Inc. Pittsburgh 
 -------------------------------------------------------
 Integral Job Info:
 Integral job number is                      11
 Integral operator is                         1
 short-range coefficients                     0
 long-range coefficients              100000000
 Omega coefficients                           0
 if combine SR and LR in K                    0
 Integral screening is                        0
 Integral computing path is                   2
 max size of driver memory is            800000
 size of driver memory is                593474
 size of scratch memory is             15166112
 max col of scratch BK array               1296
 max len of scratch array in speh3          155
 max len of scratch index in speh4           18
 max int batch size is                      520
 min int batch size is                       52
 fixed nKL is                                52
 max L of basis functions is                  2
 order of int derivative is                   0
 number of shells is                         76
 number of basis is                         234
 number of cartesian basis is               234
 number of contracted shell pairs          2534
 number of primitive shell pairs           8242
 maxK2 (contraction) of shell pair           36
 max number of K2 of shell pair               1
 max number of CS2 of shell pair            270
 max number of PS2 of shell pair           1512
 mem total for path MDJ                   52824
 -------------------------------------------------------
 Smallest overlap matrix eigenvalue = 1.11E-06

 Scale SEOQF with 1.000000e-01/1.000000e-01/1.000000e-01

 Standard Electronic Orientation quadrupole field applied
 Nucleus-field energy     =    -0.0000000423 hartrees
 Guess from superposition of atomic densities
 Warning:  Energy on first SCF cycle will be non-variational
 An unrestricted hybrid HF-DFT SCF calculation will be
 performed using Pulay DIIS extrapolation
 Exchange:     0.2000 Hartree-Fock + 0.0800 Slater + 0.7200 B88
 Correlation:  0.1900 VWN1RPA + 0.8100 LYP
 Using SG-1 standard quadrature grid
 SCF converges when DIIS error is below 1.0E-08
 Inaccurate integrated density:
   Number of electrons =    85
   Numerical integral  =    86.000653031872
   Relative error      =     1.1772388610 %
 ---------------------------------------
  Cycle       Energy         DIIS Error
 ---------------------------------------
    1   -1107.1930657885      4.41E-02
    2   -1104.4443434073      3.62E-03
    3   -1104.2552724297      5.89E-03
    4   -1104.5400143573      1.01E-03
    5   -1104.5443430927      7.14E-04
    6   -1104.5488078735      2.11E-04
    7   -1104.5492081084      1.07E-04
    8   -1104.5493434931      3.24E-05
    9   -1104.5493867859      2.24E-05
   10   -1104.5494337972      1.03E-05
   11   -1104.5494534914      5.42E-06
   12   -1104.5494563372      3.15E-06
   13   -1104.5494572332      1.29E-06
   14   -1104.5494574597      3.81E-07
   15   -1104.5494574745      1.94E-07
   16   -1104.5494574768      4.39E-08
   17   -1104.5494574772      2.27E-08
   18   -1104.5494574773      1.03E-08
   19   -1104.5494574774      6.84E-09 Convergence criterion met
 ---------------------------------------
 <S^2> = 0.7609
 SCF time:  CPU 12.79 s  wall 12.35 s
 SCF   energy in the final basis set = -1104.5494574774
 Total energy in the final basis set = -1104.5494574774
 
 --------------------------------------------------------------
 
                    Orbital Energies (a.u.)
 --------------------------------------------------------------
 
 Alpha MOs
 -- Occupied --
-89.094 -89.094 -10.434 -10.433 -10.417 -10.417 -10.391 -10.391
-10.380 -10.380  -8.153  -8.153  -6.118  -6.118  -6.114  -6.113
 -6.110  -6.110  -1.087  -1.063  -0.959  -0.924  -0.917  -0.892
 -0.786  -0.752  -0.735  -0.711  -0.698  -0.653  -0.597  -0.594
 -0.594  -0.581  -0.576  -0.556  -0.553  -0.524  -0.519  -0.454
 -0.435  -0.432  -0.418
 -- Virtual --
 -0.227  -0.200  -0.155  -0.155  -0.134  -0.123  -0.122  -0.106
 -0.098  -0.094  -0.091  -0.085  -0.081  -0.078  -0.068  -0.059
 -0.046  -0.040  -0.034  -0.033  -0.018  -0.017  -0.015  -0.009
  0.000   0.004   0.005   0.008   0.011   0.015   0.023   0.023
  0.027   0.029   0.033   0.034   0.040   0.049   0.053   0.059
  0.060   0.063   0.073   0.077   0.081   0.089   0.098   0.108
  0.113   0.113   0.123   0.134   0.137   0.140   0.148   0.156
  0.175   0.176   0.179   0.186   0.216   0.224   0.241   0.242
  0.280   0.302   0.307   0.348   0.367   0.369   0.376   0.419
  0.423   0.436   0.454   0.465   0.481   0.485   0.500   0.516
  0.533   0.551   0.558   0.564   0.574   0.587   0.597   0.607
  0.612   0.637   0.637   0.659   0.667   0.709   0.745   0.770
  0.774   0.784   0.795   0.806   0.809   0.833   0.837   0.854
  0.858   0.859   0.865   0.914   0.920   0.923   0.936   0.951
  0.978   1.011   1.026   1.044   1.092   1.104   1.147   1.166
  1.166   1.181   1.189   1.206   1.270   1.291   1.323   1.362
  1.365   1.506   1.509   1.577   1.617   1.674   1.696   1.710
  1.742   1.749   1.788   1.814   1.826   1.855   1.896   1.915
  1.945   1.951   2.000   2.001   2.040   2.079   2.081   2.161
  2.199   2.201   2.248   2.253   2.293   2.298   2.321   2.335
  2.346   2.350   2.411   2.416   2.421   2.476   2.526   2.531
  2.569   2.672   2.681   2.715   2.749   2.981   3.011   3.108
  3.110   3.235   3.255   3.550   3.569   3.798   3.801   4.080
  4.123   4.132   4.153   4.242   4.346   4.478   4.530
 
 Beta MOs
 -- Occupied --
-89.094 -89.094 -10.431 -10.431 -10.413 -10.413 -10.390 -10.390
-10.380 -10.380  -8.153  -8.153  -6.118  -6.118  -6.114  -6.114
 -6.111  -6.110  -1.080  -1.057  -0.951  -0.921  -0.914  -0.882
 -0.781  -0.747  -0.730  -0.708  -0.696  -0.650  -0.594  -0.590
 -0.584  -0.579  -0.574  -0.546  -0.541  -0.523  -0.518  -0.433
 -0.429  -0.424
 -- Virtual --
 -0.353  -0.210  -0.184  -0.151  -0.150  -0.127  -0.120  -0.114
 -0.103  -0.098  -0.092  -0.090  -0.085  -0.080  -0.075  -0.067
 -0.058  -0.045  -0.038  -0.033  -0.032  -0.017  -0.016  -0.015
 -0.009   0.001   0.005   0.006   0.009   0.012   0.018   0.024
  0.024   0.028   0.030   0.033   0.036   0.042   0.051   0.054
  0.061   0.062   0.064   0.074   0.078   0.082   0.090   0.099
  0.108   0.114   0.114   0.127   0.135   0.138   0.142   0.150
  0.158   0.176   0.178   0.181   0.188   0.217   0.226   0.243
  0.243   0.282   0.304   0.309   0.351   0.368   0.371   0.377
  0.420   0.426   0.438   0.456   0.467   0.487   0.494   0.506
  0.523   0.535   0.555   0.560   0.566   0.575   0.589   0.600
  0.613   0.618   0.639   0.641   0.664   0.673   0.712   0.747
  0.776   0.777   0.786   0.796   0.809   0.810   0.835   0.839
  0.855   0.859   0.861   0.868   0.915   0.922   0.925   0.939
  0.953   0.981   1.015   1.031   1.049   1.094   1.107   1.149
  1.174   1.174   1.186   1.195   1.210   1.276   1.295   1.326
  1.371   1.371   1.518   1.522   1.583   1.625   1.680   1.700
  1.712   1.745   1.752   1.793   1.820   1.831   1.861   1.899
  1.921   1.953   1.960   2.010   2.012   2.048   2.085   2.088
  2.166   2.203   2.204   2.250   2.260   2.300   2.300   2.325
  2.340   2.350   2.353   2.415   2.420   2.425   2.480   2.530
  2.535   2.574   2.675   2.683   2.717   2.752   2.982   3.012
  3.109   3.111   3.236   3.257   3.552   3.571   3.798   3.801
  4.086   4.126   4.138   4.156   4.249   4.353   4.481   4.534
 --------------------------------------------------------------
 
          Ground-State Mulliken Net Atomic Charges

     Atom                 Charge (a.u.)    Spin (a.u.)
  --------------------------------------------------------
      1 S                     0.137890      -0.052030
      2 C                     0.073510       0.290941
      3 H                     0.247589      -0.013519
      4 C                    -0.382205      -0.007484
      5 H                     0.173135      -0.000549
      6 C                     0.287636       0.115754
      7 H                     0.180282      -0.005899
      8 C                    -0.217124       0.173048
      9 C                    -0.217743       0.172530
     10 C                     0.284971       0.115513
     11 H                     0.180308      -0.005866
     12 C                    -0.380272      -0.007096
     13 H                     0.173195      -0.000569
     14 C                     0.072719       0.290472
     15 H                     0.247571      -0.013512
     16 S                     0.138537      -0.051734
  --------------------------------------------------------
  Sum of atomic charges =     1.000000
  Sum of spin   charges =     1.000000

 -----------------------------------------------------------------
                    Cartesian Multipole Moments
 -----------------------------------------------------------------
    Charge (ESU x 10^10)
                 4.8032
    Dipole Moment (Debye)
         X      -3.3006      Y       0.1410      Z     -10.1263
       Tot      10.6516
    Quadrupole Moments (Debye-Ang)
        XX     -30.8566     XY       0.3427     YY     -67.2411
        XZ      24.7967     YZ      -4.0599     ZZ     -30.6187
    Octopole Moments (Debye-Ang^2)
       XXX      79.6402    XXY     -15.3744    XYY      34.7833
       YYY     -40.0034    XXZ      26.4625    XYZ      11.4786
       YYZ     129.7301    XZZ     -43.4398    YZZ      13.6202
       ZZZ     286.1659
    Hexadecapole Moments (Debye-Ang^3)
      XXXX   -1209.5241   XXXY      65.6441   XXYY    -295.0265
      XYYY      55.6534   YYYY    -270.7209   XXXZ    -312.7839
      XXYZ      22.2883   XYYZ    -184.9159   YYYZ     149.5469
      XXZZ    -273.2066   XYZZ     -63.3301   YYZZ    -443.2269
      XZZZ    -290.8993   YZZZ      22.6572   ZZZZ   -2119.9932
 -----------------------------------------------------------------
 Calculating analytic gradient of the SCF energy
 Gradient of SCF Energy
            1           2           3           4           5           6
    1   0.0030112   0.0176455  -0.0007827   0.0010675   0.0004080  -0.0324450
    2   0.0065079   0.0013344  -0.0021631   0.0020109   0.0013655  -0.0116524
    3  -0.0118459  -0.0089399  -0.0011336   0.0294955   0.0005968   0.0025787
            7           8           9          10          11          12
    1  -0.0005459   0.0244486  -0.0217379   0.0333564  -0.0001070  -0.0071389
    2   0.0014005   0.0017130  -0.0122555   0.0079437   0.0009392   0.0225419
    3   0.0000020  -0.0051251   0.0003736  -0.0045814   0.0011479  -0.0176523
           13          14          15          16
    1  -0.0009813  -0.0148801   0.0017170  -0.0030355
    2   0.0010609  -0.0127220  -0.0017146  -0.0063103
    3   0.0005283   0.0034699  -0.0007309   0.0118165
 Max gradient component =       3.336E-02
 RMS gradient           =       1.171E-02
 Gradient time:  CPU 1.90 s  wall 1.91 s
 Geometry Optimization Parameters
   NAtoms,    NIC,     NZ,  NCons,   NDum,   NFix, NCnnct, MaxDiis
       16     111       0       1       0       0       0       0


** CONSTRAINED OPTIMIZATION IN DELOCALIZED INTERNAL COORDINATES **
   Searching for a Minimum

   Optimization Cycle:   1

                       Coordinates (Angstroms)
     ATOM                X               Y               Z
      1  S         0.0023888700    0.0607727500    0.0018326900
      2  C         1.7370761900    0.0331584900    0.0032322900
      3  H         2.2761273700    0.0528903200    0.9404255700
      4  C         2.2416920400   -0.0154620100   -1.2696579800
      5  H         3.3028578000   -0.0400536500   -1.4897249600
      6  C         1.2247922200   -0.0161296800   -2.2681146400
      7  H         1.4267479000   -0.0265098700   -3.3333450100
      8  C        -0.0539377100    0.0288038800   -1.7517096600
      9  C        -1.3245081500    0.0488998800   -2.4563634200
     10  C        -2.3684958300   -0.8509333700   -2.3898180100
     11  H        -2.3520714000   -1.7222986300   -1.7446274300
     12  C        -3.4724601500   -0.5037008600   -3.2214291500
     13  H        -4.3825199800   -1.0885453900   -3.2910180000
     14  C        -3.2687988100    0.6586316500   -3.9175896100
     15  H        -3.9367054200    1.1548851200   -4.6083243900
     16  S        -1.7101826000    1.3412936100   -3.5796200500
   Point Group: c1    Number of degrees of freedom:    42


   Energy is  -1104.549457477

              Constraints and their Current Values
                                        Value     Constraint
   Dihedral:        6   8   9  10      120.000      120.000

 Attempting to Generate Delocalized Internal Coordinates

 41 Hessian modes will be used to form the next step
  Hessian Eigenvalues:
     0.045000    0.045000    0.045000    0.045000    0.045000    0.045000
     0.045002    0.045002    0.045003    0.045004    0.045011    0.045012
     0.159943    0.159949    0.159991    0.159992    0.160000    0.160000
     0.221282    0.221282    0.237835    0.237839    0.250000    0.250000
     0.294264    0.294663    0.312518    0.312618    0.354736    0.354850
     0.355125    0.355132    0.358226    0.358329    0.378510    0.404854
     0.404909    0.463547    0.463616    0.497922    0.497945

 Minimum Search - Taking Simple RFO Step
 Searching for Lamda that Minimizes Along All modes
 Value Taken    Lamda =  -0.01204719
 Step Taken.  Stepsize is  0.280827

                             Maximum     Tolerance    Cnvgd?
         Gradient           0.029122      0.000300      NO
         Displacement       0.139996      0.001200      NO
         Energy change     *********      0.000001      NO


 New Cartesian Coordinates Obtained by Inverse Iteration

 Displacement from previous Coordinates is:  0.575012
 ----------------------------------------------------------------
             Standard Nuclear Orientation (Angstroms)
    I     Atom           X                Y                Z
 ----------------------------------------------------------------
    1      S      -0.0333161650     0.0197238987     0.0321731030
    2      C       1.6952089190    -0.0183379305    -0.0211279512
    3      H       2.2477466136    -0.0401755880     0.9104786619
    4      C       2.2133768544    -0.0228374566    -1.3121563962
    5      H       3.2721958363    -0.0683752162    -1.5383435025
    6      C       1.2099406716     0.0500484058    -2.2862887564
    7      H       1.3994499288     0.0668770188    -3.3538915234
    8      C      -0.0768134328     0.0946411875    -1.7284483253
    9      C      -1.3334583034     0.1117071424    -2.4193785516
   10      C      -2.3770380326    -0.8216216594    -2.3261330819
   11      H      -2.3585738047    -1.6745791741    -1.6566779676
   12      C      -3.4362440552    -0.5284286558    -3.1940604839
   13      H      -4.3349007352    -1.1287400176    -3.2744213421
   14      C      -3.2070194744     0.6283360360    -3.9320123056
   15      H      -3.8702607366     1.0920792772    -4.6522938851
   16      S      -1.6682917438     1.3553849717    -3.6232694521
 ----------------------------------------------------------------
 Nuclear Repulsion Energy =   628.7275715902 hartrees
 There are       43 alpha and       42 beta electrons
 Applying Cartesian multipole field
    Component          Value
    ---------          -----
     (2,0,0)        1.00000E-11
     (0,2,0)        2.00000E-11
     (0,0,2)       -3.00000E-11
 Nucleus-field energy     =    -0.0000000429 hartrees
 Requested basis set is 6-31++G(d,p)
 There are 76 shells and 234 basis functions
 A cutoff of  1.0D-12 yielded   2540 shell pairs
 There are     25058 function pairs

 Q-Chem warning in module /project/projectdirs/jcesr/qchem/qc44/cnl_qc441/compile/cori/qc_src/libqints/qchem/aobasis.C, line 68:

 Using reconstructed effective core potential

 Smallest overlap matrix eigenvalue = 8.67E-07
 Linear dependence detected in AO basis
 Number of orthogonalized atomic orbitals = 233
 Maximum deviation from orthogonality = 4.072E-11
 No. of orbitals has changed due to linear dependencies.  Generating new SCF guess.
 Guess from superposition of atomic densities
 Warning:  Energy on first SCF cycle will be non-variational
 An unrestricted hybrid HF-DFT SCF calculation will be
 performed using Pulay DIIS extrapolation
 Exchange:     0.2000 Hartree-Fock + 0.0800 Slater + 0.7200 B88
 Correlation:  0.1900 VWN1RPA + 0.8100 LYP
 Using SG-1 standard quadrature grid
 SCF converges when DIIS error is below 1.0E-08
 Geometry optimization detected.  Setting ReadMinima to 0
 Setting SaveMinima to 0
 Inaccurate integrated density:
   Number of electrons =    85
   Numerical integral  =    86.000157409712
   Relative error      =     1.1766557761 %
 ---------------------------------------
  Cycle       Energy         DIIS Error
 ---------------------------------------
    1   -1107.1603394289      4.40E-02
    2   -1104.4496796712      3.66E-03
    3   -1104.2608467578      5.93E-03
    4   -1104.5500469254      8.22E-04
    5   -1104.5524030176      6.40E-04
    6   -1104.5557845534      1.79E-04
    7   -1104.5560775954      7.06E-05
    8   -1104.5561405935      2.20E-05
    9   -1104.5561589965      1.48E-05
   10   -1104.5561764955      5.85E-06
   11   -1104.5561859534      3.57E-06
   12   -1104.5561875246      2.24E-06
   13   -1104.5561879377      8.40E-07
   14   -1104.5561880123      2.30E-07
   15   -1104.5561880180      9.66E-08
   16   -1104.5561880184      2.89E-08
   17   -1104.5561880191      1.28E-08
   18   -1104.5561880187      4.35E-09 Convergence criterion met
 ---------------------------------------
 <S^2> = 0.7634
 SCF time:  CPU 12.11 s  wall 11.49 s
 SCF   energy in the final basis set = -1104.5561880187
 Total energy in the final basis set = -1104.5561880187
 
 --------------------------------------------------------------
 
                    Orbital Energies (a.u.)
 --------------------------------------------------------------
 
 Alpha MOs
 -- Occupied --
-89.098 -89.098 -10.431 -10.431 -10.417 -10.417 -10.391 -10.391
-10.379 -10.379  -8.156  -8.156  -6.121  -6.121  -6.117  -6.117
 -6.113  -6.113  -1.084  -1.059  -0.955  -0.929  -0.922  -0.881
 -0.784  -0.751  -0.732  -0.712  -0.699  -0.647  -0.593  -0.592
 -0.586  -0.580  -0.577  -0.555  -0.550  -0.533  -0.527  -0.451
 -0.438  -0.436  -0.406
 -- Virtual --
 -0.233  -0.201  -0.160  -0.160  -0.133  -0.123  -0.119  -0.106
 -0.098  -0.094  -0.090  -0.086  -0.082  -0.076  -0.068  -0.058
 -0.045  -0.039  -0.033  -0.031  -0.018  -0.017  -0.014  -0.010
  0.002   0.002   0.007   0.010   0.014   0.014   0.021   0.023
  0.027   0.030   0.034   0.035   0.040   0.049   0.051   0.060
  0.064   0.070   0.077   0.078   0.083   0.095   0.101   0.109
  0.109   0.111   0.114   0.125   0.140   0.142   0.151   0.159
  0.172   0.178   0.195   0.211   0.223   0.233   0.236   0.254
  0.304   0.307   0.355   0.367   0.370   0.374   0.411   0.416
  0.440   0.452   0.462   0.480   0.485   0.499   0.511   0.539
  0.549   0.558   0.562   0.578   0.588   0.598   0.612   0.614
  0.638   0.640   0.660   0.665   0.706   0.737   0.764   0.769
  0.784   0.790   0.803   0.811   0.815   0.837   0.838   0.849
  0.851   0.860   0.911   0.912   0.915   0.933   0.953   0.976
  1.003   1.013   1.040   1.091   1.100   1.142   1.169   1.171
  1.182   1.188   1.208   1.276   1.282   1.316   1.357   1.362
  1.503   1.508   1.568   1.625   1.660   1.718   1.721   1.736
  1.743   1.795   1.828   1.836   1.860   1.900   1.912   1.938
  1.938   2.003   2.010   2.035   2.076   2.082   2.149   2.202
  2.203   2.251   2.252   2.285   2.298   2.321   2.330   2.334
  2.350   2.400   2.405   2.412   2.472   2.526   2.529   2.576
  2.672   2.672   2.713   2.741   2.976   3.009   3.105   3.107
  3.230   3.249   3.552   3.570   3.795   3.800   4.080   4.092
  4.128   4.148   4.244   4.337   4.486   4.535
 
 Beta MOs
 -- Occupied --
-89.098 -89.098 -10.429 -10.428 -10.413 -10.413 -10.389 -10.389
-10.379 -10.379  -8.157  -8.157  -6.121  -6.121  -6.117  -6.117
 -6.114  -6.114  -1.078  -1.054  -0.947  -0.927  -0.919  -0.871
 -0.779  -0.747  -0.727  -0.710  -0.697  -0.644  -0.589  -0.585
 -0.581  -0.578  -0.574  -0.544  -0.540  -0.532  -0.525  -0.436
 -0.433  -0.422
 -- Virtual --
 -0.341  -0.214  -0.185  -0.156  -0.156  -0.126  -0.120  -0.111
 -0.104  -0.098  -0.093  -0.089  -0.086  -0.080  -0.074  -0.068
 -0.057  -0.044  -0.037  -0.032  -0.030  -0.017  -0.016  -0.013
 -0.010   0.003   0.003   0.008   0.011   0.015   0.017   0.022
  0.024   0.028   0.031   0.034   0.037   0.042   0.050   0.052
  0.061   0.065   0.071   0.078   0.080   0.084   0.097   0.101
  0.110   0.111   0.112   0.117   0.126   0.141   0.143   0.152
  0.161   0.173   0.180   0.197   0.213   0.225   0.234   0.239
  0.257   0.305   0.309   0.357   0.369   0.370   0.374   0.413
  0.418   0.441   0.454   0.463   0.486   0.496   0.504   0.520
  0.541   0.552   0.559   0.564   0.580   0.591   0.601   0.616
  0.620   0.642   0.643   0.665   0.671   0.709   0.738   0.770
  0.772   0.787   0.791   0.805   0.814   0.816   0.838   0.839
  0.852   0.852   0.862   0.912   0.914   0.917   0.935   0.954
  0.980   1.008   1.017   1.044   1.094   1.103   1.143   1.176
  1.180   1.186   1.194   1.211   1.281   1.287   1.321   1.364
  1.369   1.516   1.522   1.576   1.631   1.665   1.723   1.724
  1.740   1.746   1.798   1.833   1.841   1.865   1.904   1.918
  1.946   1.948   2.013   2.018   2.045   2.083   2.088   2.155
  2.206   2.206   2.254   2.258   2.291   2.299   2.325   2.335
  2.339   2.353   2.404   2.409   2.417   2.475   2.531   2.533
  2.582   2.675   2.675   2.715   2.744   2.978   3.010   3.105
  3.108   3.232   3.251   3.554   3.572   3.795   3.800   4.087
  4.099   4.132   4.151   4.250   4.345   4.489   4.538
 --------------------------------------------------------------
 
          Ground-State Mulliken Net Atomic Charges

     Atom                 Charge (a.u.)    Spin (a.u.)
  --------------------------------------------------------
      1 S                     0.158498      -0.051962
      2 C                     0.086288       0.309771
      3 H                     0.247632      -0.014658
      4 C                    -0.372865      -0.018576
      5 H                     0.172966       0.000403
      6 C                     0.296614       0.129586
      7 H                     0.180687      -0.007024
      8 C                    -0.269623       0.152590
      9 C                    -0.269714       0.152252
     10 C                     0.294840       0.129579
     11 H                     0.180785      -0.007006
     12 C                    -0.371035      -0.018347
     13 H                     0.173004       0.000394
     14 C                     0.085046       0.309398
     15 H                     0.247542      -0.014651
     16 S                     0.159336      -0.051749
  --------------------------------------------------------
  Sum of atomic charges =     1.000000
  Sum of spin   charges =     1.000000

 -----------------------------------------------------------------
                    Cartesian Multipole Moments
 -----------------------------------------------------------------
    Charge (ESU x 10^10)
                 4.8032
    Dipole Moment (Debye)
         X      -3.2953      Y       0.1197      Z     -10.1373
       Tot      10.6601
    Quadrupole Moments (Debye-Ang)
        XX     -32.4482     XY       0.5682     YY     -67.1592
        XZ      23.6687     YZ      -4.6770     ZZ     -30.0594
    Octopole Moments (Debye-Ang^2)
       XXX      85.0144    XXY     -18.6247    XYY      35.1752
       YYY     -40.2706    XXZ      30.9245    XYZ       9.7301
       YYZ     129.3998    XZZ     -40.5150    YZZ      15.2708
       ZZZ     281.3391
    Hexadecapole Moments (Debye-Ang^3)
      XXXX   -1205.7500   XXXY      72.6778   XXYY    -290.3443
      XYYY      54.9089   YYYY    -270.8047   XXXZ    -328.8775
      XXYZ      34.1652   XYYZ    -182.6726   YYYZ     158.8158
      XXZZ    -286.9389   XYZZ     -58.1515   YYZZ    -443.4466
      XZZZ    -285.5540   YZZZ      23.2857   ZZZZ   -2103.1074
 -----------------------------------------------------------------
 Calculating analytic gradient of the SCF energy
 Gradient of SCF Energy
            1           2           3           4           5           6
    1  -0.0076003   0.0026981  -0.0010840   0.0012560  -0.0000492  -0.0062963
    2   0.0043026   0.0028600  -0.0014478  -0.0001218   0.0008622  -0.0109128
    3   0.0038328  -0.0057737   0.0002382   0.0036637  -0.0014810  -0.0019723
            7           8           9          10          11          12
    1   0.0014841   0.0130536  -0.0140423   0.0102933  -0.0014953  -0.0018243
    2   0.0004638   0.0052912  -0.0015713  -0.0051476  -0.0003785   0.0021720
    3  -0.0001191   0.0007192   0.0011386  -0.0057238   0.0001739  -0.0026396
           13          14          15          16
    1  -0.0000238  -0.0024144   0.0015027   0.0045419
    2  -0.0006059  -0.0037336  -0.0002028   0.0081703
    3   0.0015869   0.0053293  -0.0010071   0.0020339
 Max gradient component =       1.404E-02
 RMS gradient           =       4.687E-03
 Gradient time:  CPU 1.94 s  wall 1.89 s
 Geometry Optimization Parameters
   NAtoms,    NIC,     NZ,  NCons,   NDum,   NFix, NCnnct, MaxDiis
       16     111       0       1       0       0       0       0

 Cartesian Hessian Update
 Hessian Updated using BFGS Update


** CONSTRAINED OPTIMIZATION IN DELOCALIZED INTERNAL COORDINATES **
   Searching for a Minimum

   Optimization Cycle:   2

                       Coordinates (Angstroms)
     ATOM                X               Y               Z
      1  S        -0.0333161650    0.0197238987    0.0321731030
      2  C         1.6952089190   -0.0183379305   -0.0211279512
      3  H         2.2477466136   -0.0401755880    0.9104786619
      4  C         2.2133768544   -0.0228374566   -1.3121563962
      5  H         3.2721958363   -0.0683752162   -1.5383435025
      6  C         1.2099406716    0.0500484058   -2.2862887564
      7  H         1.3994499288    0.0668770188   -3.3538915234
      8  C        -0.0768134328    0.0946411875   -1.7284483253
      9  C        -1.3334583034    0.1117071424   -2.4193785516
     10  C        -2.3770380326   -0.8216216594   -2.3261330819
     11  H        -2.3585738047   -1.6745791741   -1.6566779676
     12  C        -3.4362440552   -0.5284286558   -3.1940604839
     13  H        -4.3349007352   -1.1287400176   -3.2744213421
     14  C        -3.2070194744    0.6283360360   -3.9320123056
     15  H        -3.8702607366    1.0920792772   -4.6522938851
     16  S        -1.6682917438    1.3553849717   -3.6232694521
   Point Group: c1    Number of degrees of freedom:    42


   Energy is  -1104.556188019

              Constraints and their Current Values
                                        Value     Constraint
   Dihedral:        6   8   9  10      120.000      120.000
 Hessian Updated using BFGS Update

 40 Hessian modes will be used to form the next step
  Hessian Eigenvalues:
     0.032603    0.045000    0.045000    0.045000    0.045000    0.045002
     0.045002    0.045004    0.045010    0.045012    0.045277    0.159862
     0.159947    0.159959    0.159992    0.160000    0.160489    0.221282
     0.222154    0.237837    0.248919    0.250000    0.284888    0.294457
     0.298326    0.312301    0.312570    0.354709    0.354832    0.355105
     0.355129    0.358209    0.358321    0.377300    0.404881    0.428993
     0.456852    0.463582    0.497932    0.511874

 Minimum Search - Taking Simple RFO Step
 Searching for Lamda that Minimizes Along All modes
 Value Taken    Lamda =  -0.00389140
 Step Taken.  Stepsize is  0.293837

                             Maximum     Tolerance    Cnvgd?
         Gradient           0.008768      0.000300      NO
         Displacement       0.171703      0.001200      NO
         Energy change     -0.006731      0.000001      NO


 New Cartesian Coordinates Obtained by Inverse Iteration

 Displacement from previous Coordinates is:  0.667635
 ----------------------------------------------------------------
             Standard Nuclear Orientation (Angstroms)
    I     Atom           X                Y                Z
 ----------------------------------------------------------------
    1      S      -0.0138117562    -0.0327016001     0.0496761835
    2      C       1.7051812469    -0.0950707649    -0.0244216267
    3      H       2.2769819090    -0.1747385676     0.8935406538
    4      C       2.2046077428    -0.0283732586    -1.3285236752
    5      H       3.2595123945    -0.0951939154    -1.5652284256
    6      C       1.1949505502     0.1329092037    -2.2769694946
    7      H       1.3622118849     0.1917951894    -3.3461950273
    8      C      -0.0960771671     0.1739545686    -1.7009463993
    9      C      -1.3511577917     0.1838595815    -2.3760353941
   10      C      -2.3965340002    -0.7624822725    -2.2680016550
   11      H      -2.3732175918    -1.5847002021    -1.5621997936
   12      C      -3.4230309665    -0.5402326852    -3.1855305396
   13      H      -4.3078431924    -1.1589220278    -3.2733520934
   14      C      -3.1867562602     0.5797055748    -3.9882323099
   15      H      -3.8431832985     0.9935600600    -4.7458018736
   16      S      -1.6698313635     1.3323333561    -3.6776302894
 ----------------------------------------------------------------
 Nuclear Repulsion Energy =   628.3489006145 hartrees
 There are       43 alpha and       42 beta electrons
 Applying Cartesian multipole field
    Component          Value
    ---------          -----
     (2,0,0)        1.00000E-11
     (0,2,0)        2.00000E-11
     (0,0,2)       -3.00000E-11
 Nucleus-field energy     =    -0.0000000437 hartrees
 Requested basis set is 6-31++G(d,p)
 There are 76 shells and 234 basis functions
 A cutoff of  1.0D-12 yielded   2540 shell pairs
 There are     25058 function pairs

 Q-Chem warning in module /project/projectdirs/jcesr/qchem/qc44/cnl_qc441/compile/cori/qc_src/libqints/qchem/aobasis.C, line 68:

 Using reconstructed effective core potential

 Smallest overlap matrix eigenvalue = 9.17E-07
 Linear dependence detected in AO basis
 Number of orthogonalized atomic orbitals = 233
 Maximum deviation from orthogonality = 5.023E-11
 Guess MOs from SCF MO coefficient file
 Reading MOs from coefficient file
 Size of previous SCF MO coefficient file: 109510 (expected); 109980 (actual). 

 Q-Chem warning in module /project/projectdirs/jcesr/qchem/qc44/cnl_qc441/compile/cori/qc_src/gesman/GuessMan.C, line 722:

 Inconsistent size for SCF MO coefficient file.  Please check basis and PURECART setting.

 Reading MOs from coefficient file
 An unrestricted hybrid HF-DFT SCF calculation will be
 performed using Pulay DIIS extrapolation
 Exchange:     0.2000 Hartree-Fock + 0.0800 Slater + 0.7200 B88
 Correlation:  0.1900 VWN1RPA + 0.8100 LYP
 Using SG-1 standard quadrature grid
 SCF converges when DIIS error is below 1.0E-08
 Geometry optimization detected.  Setting ReadMinima to 0
 Setting SaveMinima to 0
 ---------------------------------------
  Cycle       Energy         DIIS Error
 ---------------------------------------
    1   -1104.5311027143      2.38E-03
    2   -1104.5585469777      2.08E-04
    3   -1104.5581106419      3.42E-04
    4   -1104.5590103933      8.20E-05
    5   -1104.5590555214      3.71E-05
    6   -1104.5590658075      1.19E-05
    7   -1104.5590673287      3.56E-06
    8   -1104.5590675331      1.24E-06
    9   -1104.5590676052      5.55E-07
   10   -1104.5590676636      3.26E-07
   11   -1104.5590676855      1.84E-07
   12   -1104.5590676883      9.16E-08
   13   -1104.5590676892      2.53E-08
   14   -1104.5590676891      2.02E-08
   15   -1104.5590676890      5.41E-09 Convergence criterion met
 ---------------------------------------
 <S^2> = 0.7648
 SCF time:  CPU 10.06 s  wall 10.10 s
 SCF   energy in the final basis set = -1104.5590676890
 Total energy in the final basis set = -1104.5590676890
 
 --------------------------------------------------------------
 
                    Orbital Energies (a.u.)
 --------------------------------------------------------------
 
 Alpha MOs
 -- Occupied --
-89.098 -89.098 -10.432 -10.431 -10.417 -10.417 -10.392 -10.392
-10.379 -10.379  -8.157  -8.157  -6.121  -6.121  -6.117  -6.117
 -6.114  -6.114  -1.084  -1.059  -0.955  -0.930  -0.922  -0.879
 -0.785  -0.752  -0.730  -0.712  -0.698  -0.648  -0.594  -0.593
 -0.586  -0.580  -0.579  -0.555  -0.550  -0.533  -0.525  -0.455
 -0.437  -0.437  -0.402
 -- Virtual --
 -0.236  -0.198  -0.159  -0.158  -0.132  -0.123  -0.120  -0.108
 -0.098  -0.095  -0.090  -0.086  -0.082  -0.076  -0.069  -0.059
 -0.045  -0.038  -0.035  -0.029  -0.021  -0.018  -0.012  -0.009
  0.001   0.004   0.008   0.011   0.012   0.014   0.021   0.024
  0.026   0.029   0.034   0.035   0.042   0.048   0.050   0.059
  0.067   0.072   0.077   0.078   0.085   0.096   0.102   0.106
  0.109   0.112   0.113   0.122   0.138   0.146   0.152   0.154
  0.169   0.177   0.197   0.209   0.223   0.231   0.236   0.252
  0.301   0.306   0.356   0.368   0.375   0.378   0.410   0.411
  0.445   0.454   0.465   0.475   0.488   0.497   0.505   0.537
  0.539   0.557   0.562   0.574   0.587   0.596   0.609   0.615
  0.638   0.643   0.662   0.663   0.703   0.736   0.761   0.765
  0.787   0.792   0.808   0.811   0.818   0.837   0.842   0.844
  0.847   0.861   0.909   0.916   0.916   0.928   0.949   0.970
  1.003   1.010   1.045   1.092   1.092   1.145   1.167   1.168
  1.180   1.180   1.215   1.273   1.274   1.302   1.357   1.379
  1.500   1.512   1.551   1.635   1.655   1.716   1.724   1.732
  1.743   1.788   1.823   1.836   1.857   1.897   1.908   1.933
  1.944   1.998   2.006   2.032   2.073   2.074   2.153   2.201
  2.203   2.246   2.254   2.281   2.298   2.322   2.327   2.333
  2.353   2.399   2.405   2.416   2.473   2.524   2.525   2.573
  2.664   2.665   2.711   2.741   2.975   3.009   3.104   3.107
  3.228   3.243   3.549   3.566   3.796   3.799   4.081   4.090
  4.131   4.147   4.242   4.335   4.486   4.529
 
 Beta MOs
 -- Occupied --
-89.098 -89.098 -10.429 -10.429 -10.413 -10.413 -10.390 -10.390
-10.379 -10.379  -8.157  -8.157  -6.121  -6.121  -6.117  -6.117
 -6.114  -6.114  -1.078  -1.054  -0.948  -0.928  -0.919  -0.869
 -0.780  -0.748  -0.725  -0.709  -0.697  -0.645  -0.590  -0.586
 -0.581  -0.577  -0.576  -0.545  -0.540  -0.532  -0.523  -0.436
 -0.434  -0.426
 -- Virtual --
 -0.336  -0.217  -0.183  -0.155  -0.154  -0.126  -0.119  -0.111
 -0.105  -0.097  -0.093  -0.089  -0.086  -0.080  -0.074  -0.069
 -0.058  -0.043  -0.037  -0.034  -0.028  -0.020  -0.017  -0.011
 -0.009   0.002   0.004   0.009   0.012   0.014   0.015   0.022
  0.025   0.028   0.031   0.035   0.036   0.043   0.049   0.051
  0.060   0.067   0.073   0.079   0.080   0.086   0.098   0.103
  0.108   0.110   0.112   0.116   0.123   0.139   0.147   0.153
  0.155   0.170   0.179   0.199   0.210   0.225   0.233   0.238
  0.255   0.302   0.308   0.358   0.369   0.375   0.378   0.412
  0.412   0.446   0.456   0.466   0.481   0.500   0.501   0.515
  0.539   0.541   0.558   0.563   0.576   0.592   0.600   0.613
  0.621   0.643   0.645   0.666   0.669   0.706   0.738   0.767
  0.767   0.788   0.796   0.810   0.814   0.820   0.840   0.844
  0.847   0.848   0.863   0.911   0.917   0.918   0.931   0.950
  0.974   1.008   1.015   1.050   1.094   1.095   1.147   1.173
  1.176   1.185   1.187   1.218   1.279   1.279   1.308   1.364
  1.387   1.511   1.525   1.561   1.640   1.660   1.724   1.725
  1.734   1.747   1.791   1.828   1.841   1.861   1.903   1.914
  1.942   1.952   2.008   2.012   2.045   2.079   2.080   2.159
  2.205   2.206   2.249   2.260   2.287   2.299   2.326   2.332
  2.337   2.356   2.404   2.410   2.421   2.476   2.528   2.529
  2.579   2.666   2.668   2.713   2.744   2.976   3.010   3.104
  3.108   3.229   3.245   3.551   3.568   3.797   3.800   4.087
  4.097   4.134   4.149   4.248   4.342   4.489   4.533
 --------------------------------------------------------------
 
          Ground-State Mulliken Net Atomic Charges

     Atom                 Charge (a.u.)    Spin (a.u.)
  --------------------------------------------------------
      1 S                     0.156644      -0.052026
      2 C                     0.084942       0.318546
      3 H                     0.247609      -0.015544
      4 C                    -0.402782      -0.025155
      5 H                     0.171150       0.000939
      6 C                     0.268609       0.139201
      7 H                     0.177866      -0.008348
      8 C                    -0.204029       0.142385
      9 C                    -0.203751       0.142398
     10 C                     0.267607       0.139166
     11 H                     0.178002      -0.008334
     12 C                    -0.401480      -0.025047
     13 H                     0.171081       0.000936
     14 C                     0.083501       0.318308
     15 H                     0.247505      -0.015536
     16 S                     0.157526      -0.051889
  --------------------------------------------------------
  Sum of atomic charges =     1.000000
  Sum of spin   charges =     1.000000

 -----------------------------------------------------------------
                    Cartesian Multipole Moments
 -----------------------------------------------------------------
    Charge (ESU x 10^10)
                 4.8032
    Dipole Moment (Debye)
         X      -3.2658      Y      -0.0004      Z     -10.1947
       Tot      10.7051
    Quadrupole Moments (Debye-Ang)
        XX     -32.7456     XY       0.6061     YY     -67.5825
        XZ      23.9489     YZ      -4.9868     ZZ     -29.1543
    Octopole Moments (Debye-Ang^2)
       XXX      86.8431    XXY     -20.6088    XYY      36.6339
       YYY     -39.9878    XXZ      31.4012    XYZ       8.0170
       YYZ     131.1559    XZZ     -43.9237    YZZ      15.6552
       ZZZ     273.7579
    Hexadecapole Moments (Debye-Ang^3)
      XXXX   -1213.0170   XXXY      75.9648   XXYY    -292.1732
      XYYY      55.7853   YYYY    -265.7797   XXXZ    -333.7365
      XXYZ      41.3319   XYYZ    -188.8426   YYYZ     169.1612
      XXZZ    -282.6968   XYZZ     -53.1201   YYZZ    -451.6101
      XZZZ    -261.9516   YZZZ      27.4073   ZZZZ   -2077.5077
 -----------------------------------------------------------------
 Calculating analytic gradient of the SCF energy
 Gradient of SCF Energy
            1           2           3           4           5           6
    1  -0.0028520  -0.0002443  -0.0001232   0.0005394  -0.0001983   0.0012277
    2   0.0013736   0.0024718  -0.0006218  -0.0004793   0.0002877  -0.0100310
    3   0.0023100   0.0005505   0.0006240  -0.0026441  -0.0004946  -0.0016338
            7           8           9          10          11          12
    1   0.0005511   0.0033803  -0.0063514   0.0030129  -0.0003958   0.0001604
    2  -0.0003093   0.0088342   0.0027378  -0.0072492  -0.0002216  -0.0024005
    3   0.0001570  -0.0008608   0.0064652  -0.0066190  -0.0004116   0.0012025
           13          14          15          16
    1   0.0001458  -0.0007148   0.0002316   0.0016305
    2  -0.0001403   0.0018213   0.0001636   0.0037630
    3   0.0005648   0.0016041  -0.0008310   0.0000166
 Max gradient component =       1.003E-02
 RMS gradient           =       3.072E-03
 Gradient time:  CPU 1.90 s  wall 1.90 s
 Geometry Optimization Parameters
   NAtoms,    NIC,     NZ,  NCons,   NDum,   NFix, NCnnct, MaxDiis
       16     111       0       1       0       0       0       0

 Cartesian Hessian Update
 Hessian Updated using BFGS Update


** CONSTRAINED OPTIMIZATION IN DELOCALIZED INTERNAL COORDINATES **
   Searching for a Minimum

   Optimization Cycle:   3

                       Coordinates (Angstroms)
     ATOM                X               Y               Z
      1  S        -0.0138117562   -0.0327016001    0.0496761835
      2  C         1.7051812469   -0.0950707649   -0.0244216267
      3  H         2.2769819090   -0.1747385676    0.8935406538
      4  C         2.2046077428   -0.0283732586   -1.3285236752
      5  H         3.2595123945   -0.0951939154   -1.5652284256
      6  C         1.1949505502    0.1329092037   -2.2769694946
      7  H         1.3622118849    0.1917951894   -3.3461950273
      8  C        -0.0960771671    0.1739545686   -1.7009463993
      9  C        -1.3511577917    0.1838595815   -2.3760353941
     10  C        -2.3965340002   -0.7624822725   -2.2680016550
     11  H        -2.3732175918   -1.5847002021   -1.5621997936
     12  C        -3.4230309665   -0.5402326852   -3.1855305396
     13  H        -4.3078431924   -1.1589220278   -3.2733520934
     14  C        -3.1867562602    0.5797055748   -3.9882323099
     15  H        -3.8431832985    0.9935600600   -4.7458018736
     16  S        -1.6698313635    1.3323333561   -3.6776302894
   Point Group: c1    Number of degrees of freedom:    42


   Energy is  -1104.559067689

              Constraints and their Current Values
                                        Value     Constraint
   Dihedral:        6   8   9  10      120.000      120.000
 Hessian Updated using BFGS Update

 41 Hessian modes will be used to form the next step
  Hessian Eigenvalues:
     0.017292    0.045000    0.045000    0.045000    0.045000    0.045001
     0.045002    0.045003    0.045006    0.045010    0.045012    0.047107
     0.159720    0.159946    0.159960    0.159992    0.160000    0.160381
     0.221283    0.222218    0.237837    0.249973    0.250945    0.287132
     0.294443    0.297148    0.310346    0.312569    0.354777    0.354955
     0.355129    0.355228    0.358273    0.358827    0.377336    0.404882
     0.426901    0.461370    0.463582    0.497935    0.526085

 Minimum Search - Taking Simple RFO Step
 Searching for Lamda that Minimizes Along All modes
 Value Taken    Lamda =  -0.00225719
 Calculated Step too Large.  Step scaled by  0.915687
 Step Taken.  Stepsize is  0.300000

                             Maximum     Tolerance    Cnvgd?
         Gradient           0.005604      0.000300      NO
         Displacement       0.211773      0.001200      NO
         Energy change     -0.002880      0.000001      NO


 New Cartesian Coordinates Obtained by Inverse Iteration

 Displacement from previous Coordinates is:  0.766661
 ----------------------------------------------------------------
             Standard Nuclear Orientation (Angstroms)
    I     Atom           X                Y                Z
 ----------------------------------------------------------------
    1      S      -0.0039815735    -0.0788908682     0.0563520446
    2      C       1.7049239820    -0.1872178943    -0.0445367285
    3      H       2.2909647261    -0.3382356900     0.8545294197
    4      C       2.1889585564    -0.0301277194    -1.3469789157
    5      H       3.2392898125    -0.1143568792    -1.5984278190
    6      C       1.1731585937     0.2230009234    -2.2643896904
    7      H       1.3214517341     0.3378511785    -3.3319983366
    8      C      -0.1153045056     0.2595225782    -1.6721273532
    9      C      -1.3707647040     0.2610394694    -2.3300195872
   10      C      -2.4119480018    -0.6942516102    -2.2058578728
   11      H      -2.3918809524    -1.4771277981    -1.4563171677
   12      C      -3.4046976346    -0.5488154142    -3.1707185738
   13      H      -4.2757992551    -1.1866620599    -3.2591907309
   14      C      -3.1495889437     0.5139537543    -4.0429373641
   15      H      -3.7894181843     0.8686937298    -4.8426209670
   16      S      -1.6633613097     1.3073265399    -3.7206121175
 ----------------------------------------------------------------
 Nuclear Repulsion Energy =   629.3175017674 hartrees
 There are       43 alpha and       42 beta electrons
 Applying Cartesian multipole field
    Component          Value
    ---------          -----
     (2,0,0)        1.00000E-11
     (0,2,0)        2.00000E-11
     (0,0,2)       -3.00000E-11
 Nucleus-field energy     =    -0.0000000444 hartrees
 Requested basis set is 6-31++G(d,p)
 There are 76 shells and 234 basis functions
 A cutoff of  1.0D-12 yielded   2545 shell pairs
 There are     25090 function pairs

 Q-Chem warning in module /project/projectdirs/jcesr/qchem/qc44/cnl_qc441/compile/cori/qc_src/libqints/qchem/aobasis.C, line 68:

 Using reconstructed effective core potential

 Smallest overlap matrix eigenvalue = 1.20E-06
 No. of orbitals has changed due to linear dependencies.  Generating new SCF guess.
 Guess from superposition of atomic densities
 Warning:  Energy on first SCF cycle will be non-variational
 An unrestricted hybrid HF-DFT SCF calculation will be
 performed using Pulay DIIS extrapolation
 Exchange:     0.2000 Hartree-Fock + 0.0800 Slater + 0.7200 B88
 Correlation:  0.1900 VWN1RPA + 0.8100 LYP
 Using SG-1 standard quadrature grid
 SCF converges when DIIS error is below 1.0E-08
 Geometry optimization detected.  Setting ReadMinima to 0
 Setting SaveMinima to 0
 Inaccurate integrated density:
   Number of electrons =    85
   Numerical integral  =    85.999816167445
   Relative error      =     1.1762543146 %
 ---------------------------------------
  Cycle       Energy         DIIS Error
 ---------------------------------------
    1   -1107.1787327271      4.39E-02
    2   -1104.4560243654      3.60E-03
    3   -1104.2816063883      5.75E-03
    4   -1104.5552046309      7.53E-04
    5   -1104.5573808179      5.71E-04
    6   -1104.5600417703      1.62E-04
    7   -1104.5602916538      5.73E-05
    8   -1104.5603445875      1.27E-05
    9   -1104.5603650541      8.56E-06
   10   -1104.5603781698      5.27E-06
   11   -1104.5603832762      2.21E-06
   12   -1104.5603842608      1.23E-06
   13   -1104.5603843400      6.92E-07
   14   -1104.5603843660      2.23E-07
   15   -1104.5603843693      8.73E-08
   16   -1104.5603843692      3.37E-08
   17   -1104.5603843702      1.29E-08
   18   -1104.5603843697      5.75E-09 Convergence criterion met
 ---------------------------------------
 <S^2> = 0.7655
 SCF time:  CPU 12.14 s  wall 11.61 s
 SCF   energy in the final basis set = -1104.5603843697
 Total energy in the final basis set = -1104.5603843697
 
 --------------------------------------------------------------
 
                    Orbital Energies (a.u.)
 --------------------------------------------------------------
 
 Alpha MOs
 -- Occupied --
-89.098 -89.098 -10.432 -10.432 -10.417 -10.417 -10.393 -10.393
-10.379 -10.379  -8.157  -8.157  -6.121  -6.121  -6.117  -6.117
 -6.114  -6.114  -1.085  -1.060  -0.957  -0.931  -0.922  -0.880
 -0.787  -0.754  -0.729  -0.712  -0.699  -0.650  -0.596  -0.594
 -0.587  -0.581  -0.579  -0.556  -0.551  -0.533  -0.522  -0.460
 -0.438  -0.437  -0.400
 -- Virtual --
 -0.239  -0.195  -0.158  -0.157  -0.132  -0.123  -0.120  -0.110
 -0.098  -0.096  -0.090  -0.086  -0.082  -0.076  -0.070  -0.060
 -0.045  -0.037  -0.037  -0.026  -0.024  -0.018  -0.010  -0.008
 -0.001   0.003   0.008   0.009   0.012   0.014   0.021   0.024
  0.026   0.028   0.034   0.038   0.043   0.044   0.049   0.058
  0.068   0.071   0.078   0.078   0.089   0.096   0.103   0.103
  0.106   0.113   0.113   0.122   0.137   0.147   0.150   0.155
  0.167   0.175   0.186   0.198   0.207   0.221   0.232   0.237
  0.268   0.302   0.307   0.356   0.365   0.381   0.386   0.404
  0.411   0.447   0.455   0.467   0.469   0.495   0.496   0.502
  0.530   0.538   0.557   0.560   0.574   0.591   0.594   0.612
  0.615   0.638   0.651   0.662   0.664   0.702   0.743   0.761
  0.766   0.784   0.801   0.812   0.820   0.828   0.830   0.845
  0.849   0.864   0.865   0.906   0.916   0.921   0.929   0.944
  0.979   1.006   1.016   1.053   1.083   1.095   1.147   1.163
  1.165   1.175   1.179   1.213   1.260   1.272   1.303   1.356
  1.406   1.487   1.515   1.542   1.644   1.655   1.710   1.728
  1.733   1.748   1.785   1.817   1.838   1.849   1.893   1.904
  1.934   1.956   1.992   1.997   2.038   2.066   2.075   2.159
  2.201   2.203   2.241   2.258   2.281   2.300   2.320   2.325
  2.345   2.355   2.400   2.407   2.425   2.476   2.521   2.525
  2.571   2.660   2.663   2.714   2.744   2.976   3.010   3.107
  3.108   3.227   3.241   3.548   3.567   3.798   3.801   4.081
  4.092   4.135   4.147   4.239   4.340   4.487   4.526
 
 Beta MOs
 -- Occupied --
-89.098 -89.098 -10.430 -10.429 -10.413 -10.413 -10.391 -10.391
-10.379 -10.379  -8.157  -8.157  -6.121  -6.121  -6.117  -6.117
 -6.114  -6.114  -1.080  -1.055  -0.950  -0.929  -0.920  -0.870
 -0.782  -0.750  -0.724  -0.709  -0.697  -0.647  -0.592  -0.588
 -0.583  -0.576  -0.576  -0.546  -0.540  -0.531  -0.521  -0.437
 -0.435  -0.430
 -- Virtual --
 -0.334  -0.219  -0.179  -0.154  -0.153  -0.126  -0.118  -0.111
 -0.107  -0.098  -0.094  -0.089  -0.086  -0.081  -0.074  -0.069
 -0.060  -0.044  -0.036  -0.036  -0.025  -0.023  -0.017  -0.008
 -0.008   0.000   0.003   0.008   0.011   0.014   0.015   0.022
  0.024   0.028   0.030   0.035   0.039   0.044   0.045   0.050
  0.059   0.069   0.072   0.080   0.080   0.091   0.097   0.103
  0.105   0.107   0.114   0.116   0.123   0.138   0.149   0.151
  0.156   0.168   0.177   0.188   0.200   0.209   0.223   0.233
  0.239   0.270   0.303   0.309   0.359   0.366   0.381   0.387
  0.406   0.413   0.448   0.457   0.470   0.475   0.500   0.507
  0.512   0.531   0.541   0.560   0.561   0.577   0.596   0.599
  0.615   0.620   0.643   0.653   0.667   0.669   0.704   0.744
  0.764   0.771   0.786   0.805   0.813   0.821   0.832   0.832
  0.846   0.851   0.865   0.866   0.908   0.919   0.922   0.930
  0.946   0.984   1.011   1.020   1.058   1.086   1.098   1.149
  1.169   1.171   1.181   1.186   1.216   1.266   1.277   1.310
  1.362   1.414   1.498   1.529   1.553   1.648   1.660   1.719
  1.730   1.735   1.752   1.787   1.822   1.843   1.854   1.901
  1.909   1.943   1.964   1.997   2.008   2.051   2.072   2.081
  2.165   2.204   2.206   2.244   2.265   2.285   2.301   2.325
  2.330   2.349   2.358   2.405   2.412   2.430   2.479   2.525
  2.529   2.576   2.663   2.665   2.716   2.747   2.977   3.011
  3.107   3.109   3.228   3.243   3.550   3.569   3.799   3.801
  4.087   4.099   4.139   4.150   4.246   4.347   4.490   4.529
 --------------------------------------------------------------
 
          Ground-State Mulliken Net Atomic Charges

     Atom                 Charge (a.u.)    Spin (a.u.)
  --------------------------------------------------------
      1 S                     0.148898      -0.052303
      2 C                     0.094048       0.322591
      3 H                     0.249153      -0.016301
      4 C                    -0.390776      -0.031055
      5 H                     0.170497       0.001237
      6 C                     0.207133       0.151668
      7 H                     0.173773      -0.009013
      8 C                    -0.147590       0.133925
      9 C                    -0.157977       0.132632
     10 C                     0.206087       0.151498
     11 H                     0.173821      -0.008977
     12 C                    -0.390426      -0.031064
     13 H                     0.170329       0.001243
     14 C                     0.093382       0.322291
     15 H                     0.249161      -0.016299
     16 S                     0.150487      -0.052073
  --------------------------------------------------------
  Sum of atomic charges =     1.000000
  Sum of spin   charges =     1.000000

 -----------------------------------------------------------------
                    Cartesian Multipole Moments
 -----------------------------------------------------------------
    Charge (ESU x 10^10)
                 4.8032
    Dipole Moment (Debye)
         X      -3.2332      Y      -0.1313      Z     -10.2571
       Tot      10.7554
    Quadrupole Moments (Debye-Ang)
        XX     -33.2434     XY       0.7063     YY     -67.9183
        XZ      23.9390     YZ      -5.1869     ZZ     -28.4431
    Octopole Moments (Debye-Ang^2)
       XXX      89.3908    XXY     -23.2293    XYY      38.5070
       YYY     -39.7961    XXZ      32.8165    XYZ       5.4775
       YYZ     133.0325    XZZ     -46.4786    YZZ      15.0823
       ZZZ     266.5702
    Hexadecapole Moments (Debye-Ang^3)
      XXXX   -1215.4304   XXXY      80.8324   XXYY    -292.6976
      XYYY      56.0247   YYYY    -261.8634   XXXZ    -341.0169
      XXYZ      50.6224   XYYZ    -194.5150   YYYZ     178.2079
      XXZZ    -281.2291   XYZZ     -44.1253   YYZZ    -459.4625
      XZZZ    -237.3351   YZZZ      35.4871   ZZZZ   -2043.5988
 -----------------------------------------------------------------
 Calculating analytic gradient of the SCF energy
 Gradient of SCF Energy
            1           2           3           4           5           6
    1   0.0007145  -0.0014811   0.0001036  -0.0005279   0.0000139   0.0032999
    2  -0.0000210   0.0002740   0.0001504   0.0005063  -0.0001847  -0.0101297
    3  -0.0003816   0.0020224   0.0000218  -0.0031983   0.0002434   0.0004419
            7           8           9          10          11          12
    1  -0.0003263  -0.0014685  -0.0027163   0.0008596   0.0005612   0.0008728
    2  -0.0006978   0.0124187   0.0046226  -0.0065342  -0.0002838  -0.0018926
    3  -0.0000261  -0.0038240   0.0119377  -0.0083687  -0.0004376   0.0024082
           13          14          15          16
    1   0.0000094   0.0008761  -0.0002022  -0.0005888
    2   0.0000694   0.0023019   0.0000646  -0.0006642
    3  -0.0002876  -0.0007295   0.0000602   0.0001177
 Max gradient component =       1.242E-02
 RMS gradient           =       3.554E-03
 Gradient time:  CPU 1.90 s  wall 1.90 s
 Geometry Optimization Parameters
   NAtoms,    NIC,     NZ,  NCons,   NDum,   NFix, NCnnct, MaxDiis
       16     111       0       1       0       0       0       0

 Cartesian Hessian Update
 Hessian Updated using BFGS Update


** CONSTRAINED OPTIMIZATION IN DELOCALIZED INTERNAL COORDINATES **
   Searching for a Minimum

   Optimization Cycle:   4

                       Coordinates (Angstroms)
     ATOM                X               Y               Z
      1  S        -0.0039815735   -0.0788908682    0.0563520446
      2  C         1.7049239820   -0.1872178943   -0.0445367285
      3  H         2.2909647261   -0.3382356900    0.8545294197
      4  C         2.1889585564   -0.0301277194   -1.3469789157
      5  H         3.2392898125   -0.1143568792   -1.5984278190
      6  C         1.1731585937    0.2230009234   -2.2643896904
      7  H         1.3214517341    0.3378511785   -3.3319983366
      8  C        -0.1153045056    0.2595225782   -1.6721273532
      9  C        -1.3707647040    0.2610394694   -2.3300195872
     10  C        -2.4119480018   -0.6942516102   -2.2058578728
     11  H        -2.3918809524   -1.4771277981   -1.4563171677
     12  C        -3.4046976346   -0.5488154142   -3.1707185738
     13  H        -4.2757992551   -1.1866620599   -3.2591907309
     14  C        -3.1495889437    0.5139537543   -4.0429373641
     15  H        -3.7894181843    0.8686937298   -4.8426209670
     16  S        -1.6633613097    1.3073265399   -3.7206121175
   Point Group: c1    Number of degrees of freedom:    42


   Energy is  -1104.560384370

              Constraints and their Current Values
                                        Value     Constraint
   Dihedral:        6   8   9  10      120.000      120.000
 Hessian Updated using BFGS Update

 41 Hessian modes will be used to form the next step
  Hessian Eigenvalues:
     0.015774    0.045000    0.045000    0.045000    0.045001    0.045001
     0.045002    0.045004    0.045009    0.045012    0.045325    0.046905
     0.159924    0.159946    0.159964    0.159992    0.160000    0.162045
     0.221283    0.222345    0.237850    0.249993    0.250339    0.288675
     0.294459    0.297800    0.312567    0.325042    0.354780    0.355003
     0.355129    0.355259    0.358273    0.358756    0.379427    0.404884
     0.424692    0.462015    0.463582    0.497935    0.510088

 Minimum Search - Taking Simple RFO Step
 Searching for Lamda that Minimizes Along All modes
 Value Taken    Lamda =  -0.00029994
 Step Taken.  Stepsize is  0.114847

                             Maximum     Tolerance    Cnvgd?
         Gradient           0.002914      0.000300      NO
         Displacement       0.090832      0.001200      NO
         Energy change     -0.001317      0.000001      NO


 New Cartesian Coordinates Obtained by Inverse Iteration

 Displacement from previous Coordinates is:  0.319288
 ----------------------------------------------------------------
             Standard Nuclear Orientation (Angstroms)
    I     Atom           X                Y                Z
 ----------------------------------------------------------------
    1      S      -0.0017311841    -0.0935318669     0.0586705230
    2      C       1.7047022365    -0.2246708568    -0.0559002387
    3      H       2.2941210155    -0.4080281474     0.8348613634
    4      C       2.1829743762    -0.0314189889    -1.3537049312
    5      H       3.2307780020    -0.1192165943    -1.6143633133
    6      C       1.1640348841     0.2578066280    -2.2589104400
    7      H       1.3095719936     0.4013753080    -3.3235575088
    8      C      -0.1205732579     0.2921767763    -1.6606397299
    9      C      -1.3805772863     0.2898430556    -2.3129088299
   10      C      -2.4178352116    -0.6672497157    -2.1819215167
   11      H      -2.4063886206    -1.4310362544    -1.4125806330
   12      C      -3.3976434381    -0.5520446011    -3.1657079653
   13      H      -4.2633480096    -1.1977330258    -3.2501523319
   14      C      -3.1331542265     0.4847038884    -4.0633671855
   15      H      -3.7621727710     0.8140923230    -4.8820860666
   16      S      -1.6607561622     1.3006343119    -3.7335829556
 ----------------------------------------------------------------
 Nuclear Repulsion Energy =   629.5168319889 hartrees
 There are       43 alpha and       42 beta electrons
 Applying Cartesian multipole field
    Component          Value
    ---------          -----
     (2,0,0)        1.00000E-11
     (0,2,0)        2.00000E-11
     (0,0,2)       -3.00000E-11
 Nucleus-field energy     =    -0.0000000446 hartrees
 Requested basis set is 6-31++G(d,p)
 There are 76 shells and 234 basis functions
 A cutoff of  1.0D-12 yielded   2547 shell pairs
 There are     25097 function pairs

 Q-Chem warning in module /project/projectdirs/jcesr/qchem/qc44/cnl_qc441/compile/cori/qc_src/libqints/qchem/aobasis.C, line 68:

 Using reconstructed effective core potential

 Smallest overlap matrix eigenvalue = 1.41E-06
 Guess MOs from SCF MO coefficient file
 Reading MOs from coefficient file
 Reading MOs from coefficient file
 An unrestricted hybrid HF-DFT SCF calculation will be
 performed using Pulay DIIS extrapolation
 Exchange:     0.2000 Hartree-Fock + 0.0800 Slater + 0.7200 B88
 Correlation:  0.1900 VWN1RPA + 0.8100 LYP
 Using SG-1 standard quadrature grid
 SCF converges when DIIS error is below 1.0E-08
 Geometry optimization detected.  Setting ReadMinima to 0
 Setting SaveMinima to 0
 ---------------------------------------
  Cycle       Energy         DIIS Error
 ---------------------------------------
    1   -1104.5600931234      9.71E-04
    2   -1104.5604076682      1.22E-04
    3   -1104.5600128383      2.58E-04
    4   -1104.5605578219      3.13E-05
    5   -1104.5605639232      1.61E-05
    6   -1104.5605659097      3.93E-06
    7   -1104.5605660439      1.51E-06
    8   -1104.5605660669      4.14E-07
    9   -1104.5605660696      1.52E-07
   10   -1104.5605660732      1.00E-07
   11   -1104.5605660734      6.27E-08
   12   -1104.5605660739      2.63E-08
   13   -1104.5605660740      1.15E-08
   14   -1104.5605660736      5.06E-09 Convergence criterion met
 ---------------------------------------
 <S^2> = 0.7655
 SCF time:  CPU 9.38 s  wall 9.07 s
 SCF   energy in the final basis set = -1104.5605660736
 Total energy in the final basis set = -1104.5605660736
 
 --------------------------------------------------------------
 
                    Orbital Energies (a.u.)
 --------------------------------------------------------------
 
 Alpha MOs
 -- Occupied --
-89.098 -89.097 -10.433 -10.432 -10.417 -10.417 -10.393 -10.393
-10.379 -10.379  -8.157  -8.156  -6.121  -6.121  -6.117  -6.117
 -6.114  -6.113  -1.086  -1.061  -0.958  -0.931  -0.921  -0.880
 -0.787  -0.755  -0.729  -0.712  -0.699  -0.650  -0.597  -0.594
 -0.587  -0.582  -0.579  -0.556  -0.551  -0.533  -0.522  -0.461
 -0.438  -0.437  -0.399
 -- Virtual --
 -0.240  -0.193  -0.158  -0.157  -0.132  -0.123  -0.120  -0.111
 -0.099  -0.096  -0.090  -0.086  -0.082  -0.076  -0.070  -0.060
 -0.045  -0.037  -0.036  -0.026  -0.024  -0.018  -0.009  -0.008
 -0.001   0.003   0.007   0.008   0.013   0.013   0.021   0.024
  0.027   0.027   0.034   0.039   0.043   0.043   0.048   0.057
  0.068   0.071   0.078   0.079   0.091   0.095   0.102   0.103
  0.105   0.113   0.114   0.122   0.136   0.145   0.151   0.156
  0.167   0.173   0.186   0.198   0.207   0.221   0.231   0.237
  0.264   0.302   0.308   0.357   0.362   0.381   0.389   0.405
  0.411   0.448   0.454   0.466   0.467   0.494   0.497   0.502
  0.524   0.538   0.557   0.559   0.573   0.591   0.592   0.612
  0.614   0.637   0.654   0.661   0.666   0.701   0.743   0.760
  0.765   0.782   0.802   0.813   0.819   0.824   0.828   0.845
  0.851   0.863   0.865   0.905   0.917   0.922   0.929   0.941
  0.979   1.004   1.011   1.056   1.080   1.097   1.146   1.161
  1.164   1.169   1.179   1.209   1.253   1.273   1.307   1.352
  1.413   1.482   1.515   1.540   1.646   1.657   1.707   1.726
  1.733   1.749   1.782   1.814   1.839   1.845   1.893   1.902
  1.935   1.958   1.985   1.996   2.040   2.063   2.077   2.159
  2.200   2.204   2.239   2.260   2.280   2.300   2.319   2.325
  2.346   2.354   2.400   2.408   2.426   2.477   2.518   2.524
  2.570   2.658   2.662   2.715   2.744   2.976   3.010   3.106
  3.108   3.226   3.241   3.547   3.566   3.798   3.800   4.081
  4.091   4.136   4.147   4.237   4.339   4.487   4.524
 
 Beta MOs
 -- Occupied --
-89.098 -89.098 -10.430 -10.430 -10.413 -10.413 -10.391 -10.391
-10.379 -10.379  -8.157  -8.157  -6.121  -6.121  -6.117  -6.117
 -6.114  -6.114  -1.080  -1.055  -0.950  -0.929  -0.919  -0.870
 -0.782  -0.750  -0.724  -0.709  -0.698  -0.647  -0.592  -0.589
 -0.583  -0.576  -0.576  -0.546  -0.540  -0.531  -0.520  -0.437
 -0.435  -0.431
 -- Virtual --
 -0.333  -0.220  -0.178  -0.154  -0.153  -0.127  -0.119  -0.111
 -0.108  -0.098  -0.094  -0.090  -0.086  -0.081  -0.074  -0.070
 -0.060  -0.044  -0.036  -0.035  -0.024  -0.024  -0.017  -0.008
 -0.007  -0.000   0.003   0.009   0.009   0.014   0.015   0.022
  0.025   0.028   0.029   0.035   0.040   0.044   0.044   0.049
  0.058   0.069   0.073   0.079   0.080   0.092   0.096   0.102
  0.104   0.106   0.114   0.116   0.123   0.137   0.146   0.152
  0.158   0.167   0.175   0.188   0.200   0.209   0.223   0.232
  0.240   0.267   0.304   0.310   0.359   0.363   0.381   0.390
  0.406   0.413   0.449   0.456   0.469   0.473   0.500   0.505
  0.511   0.526   0.540   0.559   0.560   0.576   0.596   0.598
  0.616   0.618   0.643   0.656   0.666   0.670   0.704   0.744
  0.763   0.770   0.784   0.806   0.815   0.821   0.828   0.830
  0.846   0.853   0.864   0.866   0.907   0.919   0.923   0.931
  0.943   0.984   1.009   1.015   1.061   1.083   1.100   1.149
  1.167   1.169   1.177   1.186   1.212   1.260   1.278   1.315
  1.357   1.421   1.493   1.529   1.551   1.649   1.661   1.716
  1.728   1.735   1.752   1.785   1.819   1.844   1.850   1.901
  1.907   1.945   1.966   1.989   2.008   2.054   2.068   2.082
  2.165   2.204   2.207   2.242   2.267   2.284   2.301   2.324
  2.330   2.350   2.358   2.405   2.412   2.431   2.480   2.523
  2.528   2.575   2.661   2.664   2.716   2.746   2.977   3.011
  3.106   3.109   3.227   3.242   3.548   3.568   3.799   3.801
  4.087   4.098   4.140   4.150   4.244   4.346   4.490   4.528
 --------------------------------------------------------------
 
          Ground-State Mulliken Net Atomic Charges

     Atom                 Charge (a.u.)    Spin (a.u.)
  --------------------------------------------------------
      1 S                     0.149248      -0.052927
      2 C                     0.097569       0.321831
      3 H                     0.249908      -0.016290
      4 C                    -0.387151      -0.031647
      5 H                     0.170659       0.001231
      6 C                     0.176225       0.152299
      7 H                     0.171208      -0.009222
      8 C                    -0.122345       0.135278
      9 C                    -0.132942       0.134245
     10 C                     0.174658       0.152066
     11 H                     0.171153      -0.009185
     12 C                    -0.386360      -0.031683
     13 H                     0.170485       0.001233
     14 C                     0.096392       0.321806
     15 H                     0.249856      -0.016309
     16 S                     0.151437      -0.052728
  --------------------------------------------------------
  Sum of atomic charges =     1.000000
  Sum of spin   charges =     1.000000

 -----------------------------------------------------------------
                    Cartesian Multipole Moments
 -----------------------------------------------------------------
    Charge (ESU x 10^10)
                 4.8032
    Dipole Moment (Debye)
         X      -3.2221      Y      -0.1796      Z     -10.2812
       Tot      10.7758
    Quadrupole Moments (Debye-Ang)
        XX     -33.4405     XY       0.7825     YY     -68.0163
        XZ      23.8445     YZ      -5.2532     ZZ     -28.2283
    Octopole Moments (Debye-Ang^2)
       XXX      90.5004    XXY     -24.4510    XYY      39.2980
       YYY     -39.7934    XXZ      33.5112    XYZ       4.2866
       YYZ     133.6839    XZZ     -47.1362    YZZ      14.6871
       ZZZ     263.9631
    Hexadecapole Moments (Debye-Ang^3)
      XXXX   -1217.1427   XXXY      83.5428   XXYY    -292.8640
      XYYY      56.1253   YYYY    -261.4410   XXXZ    -345.2476
      XXYZ      54.7094   XYYZ    -196.5732   YYYZ     181.2016
      XXZZ    -281.7161   XYZZ     -39.6469   YYZZ    -462.2708
      XZZZ    -228.5811   YZZZ      39.3898   ZZZZ   -2029.4480
 -----------------------------------------------------------------
 Calculating analytic gradient of the SCF energy
 Gradient of SCF Energy
            1           2           3           4           5           6
    1   0.0008719  -0.0009147   0.0001458  -0.0001799   0.0000244   0.0017733
    2  -0.0001920  -0.0005034   0.0002673   0.0004702  -0.0002132  -0.0102258
    3  -0.0006667   0.0010472  -0.0000156  -0.0012861   0.0002676   0.0005654
            7           8           9          10          11          12
    1  -0.0003696   0.0006865  -0.0050627   0.0022329   0.0005562   0.0002296
    2  -0.0005482   0.0137565   0.0039062  -0.0059354  -0.0002549  -0.0006341
    3  -0.0001044  -0.0046641   0.0129811  -0.0082094  -0.0002818   0.0011922
           13          14          15          16
    1   0.0000102   0.0008380  -0.0002388  -0.0006033
    2   0.0000692   0.0008979   0.0000898  -0.0009501
    3  -0.0003158  -0.0008648   0.0001968   0.0001585
 Max gradient component =       1.376E-02
 RMS gradient           =       3.676E-03
 Gradient time:  CPU 1.90 s  wall 1.90 s
 Geometry Optimization Parameters
   NAtoms,    NIC,     NZ,  NCons,   NDum,   NFix, NCnnct, MaxDiis
       16     111       0       1       0       0       0       0

 Cartesian Hessian Update
 Hessian Updated using BFGS Update


** CONSTRAINED OPTIMIZATION IN DELOCALIZED INTERNAL COORDINATES **
   Searching for a Minimum

   Optimization Cycle:   5

                       Coordinates (Angstroms)
     ATOM                X               Y               Z
      1  S        -0.0017311841   -0.0935318669    0.0586705230
      2  C         1.7047022365   -0.2246708568   -0.0559002387
      3  H         2.2941210155   -0.4080281474    0.8348613634
      4  C         2.1829743762   -0.0314189889   -1.3537049312
      5  H         3.2307780020   -0.1192165943   -1.6143633133
      6  C         1.1640348841    0.2578066280   -2.2589104400
      7  H         1.3095719936    0.4013753080   -3.3235575088
      8  C        -0.1205732579    0.2921767763   -1.6606397299
      9  C        -1.3805772863    0.2898430556   -2.3129088299
     10  C        -2.4178352116   -0.6672497157   -2.1819215167
     11  H        -2.4063886206   -1.4310362544   -1.4125806330
     12  C        -3.3976434381   -0.5520446011   -3.1657079653
     13  H        -4.2633480096   -1.1977330258   -3.2501523319
     14  C        -3.1331542265    0.4847038884   -4.0633671855
     15  H        -3.7621727710    0.8140923230   -4.8820860666
     16  S        -1.6607561622    1.3006343119   -3.7335829556
   Point Group: c1    Number of degrees of freedom:    42


   Energy is  -1104.560566074

              Constraints and their Current Values
                                        Value     Constraint
   Dihedral:        6   8   9  10      120.000      120.000
 Hessian Updated using BFGS Update

 41 Hessian modes will be used to form the next step
  Hessian Eigenvalues:
     0.015808    0.042773    0.045000    0.045000    0.045000    0.045001
     0.045002    0.045002    0.045006    0.045012    0.045045    0.046318
     0.158432    0.159940    0.159949    0.159989    0.160000    0.160013
     0.221283    0.222229    0.237858    0.248235    0.250046    0.288350
     0.294443    0.297751    0.305032    0.312569    0.354775    0.354935
     0.355129    0.355171    0.358273    0.358745    0.379162    0.404891
     0.426845    0.453676    0.463584    0.489934    0.497937

 Minimum Search - Taking Simple RFO Step
 Searching for Lamda that Minimizes Along All modes
 Value Taken    Lamda =  -0.00005722
 Step Taken.  Stepsize is  0.035942

                             Maximum     Tolerance    Cnvgd?
         Gradient           0.001690      0.000300      NO
         Displacement       0.024422      0.001200      NO
         Energy change     -0.000182      0.000001      NO


 New Cartesian Coordinates Obtained by Inverse Iteration

 Displacement from previous Coordinates is:  0.080827
 ----------------------------------------------------------------
             Standard Nuclear Orientation (Angstroms)
    I     Atom           X                Y                Z
 ----------------------------------------------------------------
    1      S      -0.0020265425    -0.0955423368     0.0597342369
    2      C       1.7048168128    -0.2328413662    -0.0592551266
    3      H       2.2939927444    -0.4259328653     0.8295844164
    4      C       2.1812511901    -0.0324336307    -1.3553065057
    5      H       3.2282399608    -0.1186030018    -1.6198527423
    6      C       1.1610726640     0.2645137876    -2.2581279151
    7      H       1.3088199192     0.4194687215    -3.3208860170
    8      C      -0.1210374051     0.2980981352    -1.6586333271
    9      C      -1.3829339647     0.2945191501    -2.3093324439
   10      C      -2.4182102426    -0.6618833733    -2.1767636909
   11      H      -2.4136466630    -1.4188632212    -1.4006504674
   12      C      -3.3954942215    -0.5530112499    -3.1652002280
   13      H      -4.2604069003    -1.2002293928    -3.2462433063
   14      C      -3.1291782638     0.4776222978    -4.0673970743
   15      H      -3.7535563776     0.8004210403    -4.8922421724
   16      S      -1.6597003701     1.3003995456    -3.7352793965
 ----------------------------------------------------------------
 Nuclear Repulsion Energy =   629.5481943036 hartrees
[...]
    9   -1104.5606096068      3.89E-09 Convergence criterion met
 ---------------------------------------
 <S^2> = 0.7654
 SCF time:  CPU 5.93 s  wall 5.74 s
 SCF   energy in the final basis set = -1104.5606096068
 Total energy in the final basis set = -1104.5606096068
 
 --------------------------------------------------------------
 
                    Orbital Energies (a.u.)
 --------------------------------------------------------------
 
 Alpha MOs
 -- Occupied --
-89.097 -89.097 -10.433 -10.432 -10.417 -10.417 -10.393 -10.393
-10.379 -10.379  -8.156  -8.156  -6.121  -6.121  -6.117  -6.116
 -6.113  -6.113  -1.086  -1.060  -0.958  -0.931  -0.921  -0.881
 -0.787  -0.755  -0.729  -0.712  -0.699  -0.650  -0.596  -0.594
 -0.587  -0.582  -0.579  -0.556  -0.551  -0.533  -0.522  -0.462
 -0.438  -0.437  -0.400
 -- Virtual --
 -0.240  -0.193  -0.158  -0.157  -0.133  -0.123  -0.120  -0.111
 -0.099  -0.096  -0.090  -0.086  -0.082  -0.076  -0.070  -0.060
 -0.045  -0.037  -0.036  -0.026  -0.024  -0.018  -0.009  -0.007
 -0.001   0.003   0.007   0.008   0.013   0.013   0.021   0.024
  0.027   0.027   0.034   0.039   0.043   0.043   0.048   0.057
  0.068   0.071   0.078   0.079   0.091   0.094   0.101   0.103
  0.105   0.113   0.114   0.122   0.137   0.145   0.151   0.157
  0.167   0.173   0.187   0.198   0.207   0.221   0.231   0.237
  0.264   0.303   0.308   0.357   0.362   0.382   0.390   0.405
  0.411   0.448   0.454   0.466   0.467   0.494   0.497   0.501
  0.523   0.538   0.557   0.559   0.573   0.591   0.591   0.612
  0.613   0.638   0.655   0.661   0.666   0.701   0.743   0.760
  0.765   0.781   0.802   0.814   0.818   0.824   0.829   0.845
  0.851   0.863   0.864   0.905   0.917   0.921   0.930   0.940
  0.979   1.004   1.011   1.056   1.081   1.098   1.149   1.162
  1.163   1.167   1.178   1.209   1.252   1.272   1.312   1.347
  1.414   1.481   1.515   1.538   1.646   1.658   1.707   1.726
  1.733   1.748   1.783   1.813   1.839   1.845   1.895   1.902
  1.936   1.958   1.982   1.996   2.040   2.063   2.077   2.160
  2.200   2.204   2.239   2.261   2.281   2.300   2.319   2.326
  2.346   2.353   2.400   2.408   2.425   2.477   2.517   2.524
  2.571   2.659   2.662   2.715   2.744   2.977   3.010   3.106
  3.108   3.226   3.242   3.547   3.567   3.798   3.800   4.081
  4.091   4.136   4.147   4.237   4.340   4.487   4.524
 
 Beta MOs
 -- Occupied --
-89.098 -89.097 -10.431 -10.430 -10.413 -10.413 -10.391 -10.391
-10.379 -10.379  -8.157  -8.156  -6.121  -6.121  -6.117  -6.117
 -6.114  -6.114  -1.080  -1.055  -0.950  -0.929  -0.919  -0.870
 -0.782  -0.751  -0.724  -0.709  -0.698  -0.647  -0.592  -0.589
 -0.583  -0.577  -0.577  -0.546  -0.540  -0.531  -0.520  -0.437
 -0.435  -0.431
 -- Virtual --
 -0.334  -0.220  -0.177  -0.154  -0.153  -0.127  -0.119  -0.111
 -0.108  -0.098  -0.095  -0.090  -0.086  -0.081  -0.074  -0.070
 -0.060  -0.044  -0.036  -0.035  -0.024  -0.024  -0.017  -0.007
 -0.007  -0.000   0.003   0.009   0.009   0.015   0.015   0.022
  0.025   0.028   0.029   0.035   0.040   0.044   0.044   0.049
  0.058   0.069   0.073   0.080   0.080   0.093   0.096   0.102
  0.104   0.106   0.114   0.116   0.123   0.138   0.146   0.152
  0.159   0.168   0.175   0.189   0.200   0.209   0.223   0.232
  0.239   0.267   0.304   0.310   0.360   0.363   0.382   0.390
  0.406   0.412   0.449   0.455   0.468   0.473   0.501   0.504
  0.511   0.525   0.540   0.559   0.560   0.576   0.596   0.597
  0.616   0.618   0.643   0.657   0.666   0.670   0.703   0.745
  0.763   0.771   0.783   0.806   0.816   0.820   0.828   0.831
  0.846   0.853   0.865   0.866   0.906   0.919   0.922   0.932
  0.942   0.984   1.008   1.015   1.061   1.083   1.101   1.151
  1.166   1.168   1.176   1.185   1.212   1.259   1.277   1.320
  1.352   1.422   1.491   1.529   1.550   1.649   1.662   1.715
  1.728   1.735   1.752   1.785   1.818   1.844   1.850   1.903
  1.907   1.945   1.966   1.987   2.008   2.054   2.068   2.082
  2.166   2.204   2.207   2.242   2.268   2.285   2.301   2.324
  2.332   2.349   2.356   2.405   2.412   2.430   2.480   2.522
  2.528   2.577   2.662   2.665   2.717   2.747   2.978   3.011
  3.106   3.109   3.228   3.243   3.548   3.568   3.799   3.801
  4.087   4.098   4.140   4.150   4.243   4.347   4.490   4.528
 --------------------------------------------------------------
 
          Ground-State Mulliken Net Atomic Charges

     Atom                 Charge (a.u.)    Spin (a.u.)
  --------------------------------------------------------
      1 S                     0.149351      -0.052906
      2 C                     0.098715       0.320874
      3 H                     0.250216      -0.016197
      4 C                    -0.386586      -0.031816
      5 H                     0.170520       0.001177
      6 C                     0.165675       0.153049
      7 H                     0.170443      -0.009191
      8 C                    -0.113760       0.135422
      9 C                    -0.123038       0.134701
     10 C                     0.164533       0.152733
     11 H                     0.170403      -0.009161
     12 C                    -0.385907      -0.031794
     13 H                     0.170351       0.001173
     14 C                     0.097628       0.320853
     15 H                     0.250177      -0.016213
     16 S                     0.151280      -0.052704
  --------------------------------------------------------
  Sum of atomic charges =     1.000000
  Sum of spin   charges =     1.000000

 -----------------------------------------------------------------
                    Cartesian Multipole Moments
 -----------------------------------------------------------------
    Charge (ESU x 10^10)
                 4.8032
    Dipole Moment (Debye)
         X      -3.2207      Y      -0.1841      Z     -10.2830
       Tot      10.7771
    Quadrupole Moments (Debye-Ang)
        XX     -33.4729     XY       0.8389     YY     -68.0408
        XZ      23.7551     YZ      -5.3012     ZZ     -28.2043
    Octopole Moments (Debye-Ang^2)
       XXX      90.7300    XXY     -24.7904    XYY      39.5175
       YYY     -39.6727    XXZ      33.7670    XYZ       3.8951
       YYZ     133.8223    XZZ     -47.0585    YZZ      14.7142
       ZZZ     263.4543
    Hexadecapole Moments (Debye-Ang^3)
      XXXX   -1217.5062   XXXY      84.7025   XXYY    -292.8346
      XYYY      56.0005   YYYY    -261.5714   XXXZ    -347.1348
      XXYZ      55.6634   XYYZ    -197.0707   YYYZ     181.4727
      XXZZ    -282.4235   XYZZ     -38.3390   YYZZ    -462.8370
      XZZZ    -226.9400   YZZZ      39.7457   ZZZZ   -2026.0619
 -----------------------------------------------------------------
 Calculating analytic gradient of the SCF energy
 Gradient of SCF Energy
            1           2           3           4           5           6
    1  -0.0000787   0.0000501  -0.0000209   0.0000105  -0.0000048  -0.0002528
    2  -0.0000150  -0.0000501  -0.0000059  -0.0000320  -0.0000042  -0.0107802
    3   0.0000316  -0.0000652   0.0000194   0.0001077   0.0000037   0.0003320
            7           8           9          10          11          12
    1   0.0000215   0.0029094  -0.0069842   0.0043077  -0.0000045  -0.0000161
    2  -0.0000283   0.0139790   0.0025045  -0.0056224  -0.0000280   0.0000635
    3   0.0000097  -0.0055028   0.0133217  -0.0081100  -0.0000425  -0.0000965
           13          14          15          16
    1   0.0000043  -0.0000230   0.0000132   0.0000683
    2   0.0000082  -0.0000848   0.0000389   0.0000566
    3  -0.0000100   0.0000041  -0.0000022  -0.0000007
 Max gradient component =       1.398E-02
 RMS gradient           =       3.816E-03
 Gradient time:  CPU 1.92 s  wall 1.90 s
 Geometry Optimization Parameters
   NAtoms,    NIC,     NZ,  NCons,   NDum,   NFix, NCnnct, MaxDiis
       16     111       0       1       0       0       0       0

 Cartesian Hessian Update
 Hessian Updated using BFGS Update


** CONSTRAINED OPTIMIZATION IN DELOCALIZED INTERNAL COORDINATES **
   Searching for a Minimum

   Optimization Cycle:   8

                       Coordinates (Angstroms)
     ATOM                X               Y               Z
      1  S        -0.0021455848   -0.0957238844    0.0600206015
      2  C         1.7053273714   -0.2324192656   -0.0595306716
      3  H         2.2937224719   -0.4284391340    0.8291888691
      4  C         2.1813304106   -0.0330611727   -1.3555880264
      5  H         3.2282404310   -0.1171226772   -1.6211568807
      6  C         1.1607939624    0.2636403155   -2.2584849836
      7  H         1.3107682876    0.4244001573   -3.3200749770
      8  C        -0.1207620964    0.2970365745   -1.6590585989
      9  C        -1.3828583709    0.2932984766   -2.3094693139
     10  C        -2.4178633981   -0.6626032768   -2.1770402568
     11  H        -2.4180622047   -1.4163843161   -1.3977883343
     12  C        -3.3952914682   -0.5535505340   -3.1656707197
     13  H        -4.2607548734   -1.2002779302   -3.2448438036
     14  C        -3.1294516912    0.4775150146   -4.0670554520
     15  H        -3.7517499638    0.7990026498   -4.8939949998
     16  S        -1.6592409434    1.3003912427   -3.7353042124
   Point Group: c1    Number of degrees of freedom:    42


   Energy is  -1104.560609607

              Constraints and their Current Values
                                        Value     Constraint
   Dihedral:        6   8   9  10      120.000      120.000
 Hessian Updated using BFGS Update

 41 Hessian modes will be used to form the next step
  Hessian Eigenvalues:
     0.015805    0.020633    0.044593    0.045000    0.045000    0.045000
     0.045002    0.045004    0.045009    0.045011    0.045086    0.046209
     0.155928    0.159876    0.159947    0.159991    0.160001    0.160011
     0.221292    0.221999    0.237889    0.247396    0.249991    0.284884
     0.293692    0.294430    0.296889    0.312567    0.354774    0.354929
     0.355129    0.355158    0.358274    0.358769    0.381087    0.404928
     0.425822    0.447505    0.463572    0.486425    0.497937

 Minimum Search - Taking Simple RFO Step
 Searching for Lamda that Minimizes Along All modes
 Value Taken    Lamda =   0.00000000
 Step Taken.  Stepsize is  0.002421

                             Maximum     Tolerance    Cnvgd?
         Gradient           0.000127      0.000300     YES
         Displacement       0.001387      0.001200      NO
         Energy change     -0.000001      0.000001     YES

 Final energy is   -1104.56060960675     


 ******************************
 **  OPTIMIZATION CONVERGED  **
 ******************************

                       Coordinates (Angstroms)
     ATOM                X               Y               Z
      1  S        -0.0021455848   -0.0957238844    0.0600206015
      2  C         1.7053273714   -0.2324192656   -0.0595306716
      3  H         2.2937224719   -0.4284391340    0.8291888691
      4  C         2.1813304106   -0.0330611727   -1.3555880264
      5  H         3.2282404310   -0.1171226772   -1.6211568807
      6  C         1.1607939624    0.2636403155   -2.2584849836
      7  H         1.3107682876    0.4244001573   -3.3200749770
      8  C        -0.1207620964    0.2970365745   -1.6590585989
      9  C        -1.3828583709    0.2932984766   -2.3094693139
     10  C        -2.4178633981   -0.6626032768   -2.1770402568
     11  H        -2.4180622047   -1.4163843161   -1.3977883343
     12  C        -3.3952914682   -0.5535505340   -3.1656707197
     13  H        -4.2607548734   -1.2002779302   -3.2448438036
     14  C        -3.1294516912    0.4775150146   -4.0670554520
     15  H        -3.7517499638    0.7990026498   -4.8939949998
     16  S        -1.6592409434    1.3003912427   -3.7353042124

Z-matrix Print:
$molecule
1 2
S 
C  1 1.717103
H  2 1.083723 1 119.814745
C  2 1.395022 1 113.116989 3 -178.451494 0
H  4 1.083335 2 123.120629 1 -177.749444 0
C  4 1.394543 2 112.471260 1 1.382396 0
H  6 1.084117 4 124.354357 2 -178.094080 0
C  6 1.415208 4 113.171326 2 0.073615 0
C  8 1.419836 6 127.652044 4 -165.975202 0
C  9 1.415105 8 127.520931 6 120.000000 0
H  10 1.084168 9 122.482787 8 12.032284 0
C  10 1.394506 9 113.170996 8 -166.149180 0
H  12 1.083306 10 124.408783 9 179.187785 0
C  12 1.395085 10 112.475915 9 0.069290 0
H  14 1.083715 12 127.074306 10 -176.919002 0
S  14 1.717179 12 113.109296 10 1.391010 0
$end

 
 --------------------------------------------------------------
 
                    Orbital Energies (a.u.)
 --------------------------------------------------------------
 
 Alpha MOs
 -- Occupied --
-89.097 -89.097 -10.433 -10.432 -10.417 -10.417 -10.393 -10.393
-10.379 -10.379  -8.156  -8.156  -6.121  -6.121  -6.117  -6.116
 -6.113  -6.113  -1.086  -1.060  -0.958  -0.931  -0.921  -0.881
 -0.787  -0.755  -0.729  -0.712  -0.699  -0.650  -0.596  -0.594
 -0.587  -0.582  -0.579  -0.556  -0.551  -0.533  -0.522  -0.462
 -0.438  -0.437  -0.400
 -- Virtual --
 -0.240  -0.193  -0.158  -0.157  -0.133  -0.123  -0.120  -0.111
 -0.099  -0.096  -0.090  -0.086  -0.082  -0.076  -0.070  -0.060
 -0.045  -0.037  -0.036  -0.026  -0.024  -0.018  -0.009  -0.007
 -0.001   0.003   0.007   0.008   0.013   0.013   0.021   0.024
  0.027   0.027   0.034   0.039   0.043   0.043   0.048   0.057
  0.068   0.071   0.078   0.079   0.091   0.094   0.101   0.103
  0.105   0.113   0.114   0.122   0.137   0.145   0.151   0.157
  0.167   0.173   0.187   0.198   0.207   0.221   0.231   0.237
  0.264   0.303   0.308   0.357   0.362   0.382   0.390   0.405
  0.411   0.448   0.454   0.466   0.467   0.494   0.497   0.501
  0.523   0.538   0.557   0.559   0.573   0.591   0.591   0.612
  0.613   0.638   0.655   0.661   0.666   0.701   0.743   0.760
  0.765   0.781   0.802   0.814   0.818   0.824   0.829   0.845
  0.851   0.863   0.864   0.905   0.917   0.921   0.930   0.940
  0.979   1.004   1.011   1.056   1.081   1.098   1.149   1.162
  1.163   1.167   1.178   1.209   1.252   1.272   1.312   1.347
  1.414   1.481   1.515   1.538   1.646   1.658   1.707   1.726
  1.733   1.748   1.783   1.813   1.839   1.845   1.895   1.902
  1.936   1.958   1.982   1.996   2.040   2.063   2.077   2.160
  2.200   2.204   2.239   2.261   2.281   2.300   2.319   2.326
  2.346   2.353   2.400   2.408   2.425   2.477   2.517   2.524
  2.571   2.659   2.662   2.715   2.744   2.977   3.010   3.106
  3.108   3.226   3.242   3.547   3.567   3.798   3.800   4.081
  4.091   4.136   4.147   4.237   4.340   4.487   4.524
 
 Beta MOs
 -- Occupied --
-89.098 -89.097 -10.431 -10.430 -10.413 -10.413 -10.391 -10.391
-10.379 -10.379  -8.157  -8.156  -6.121  -6.121  -6.117  -6.117
 -6.114  -6.114  -1.080  -1.055  -0.950  -0.929  -0.919  -0.870
 -0.782  -0.751  -0.724  -0.709  -0.698  -0.647  -0.592  -0.589
 -0.583  -0.577  -0.577  -0.546  -0.540  -0.531  -0.520  -0.437
 -0.435  -0.431
 -- Virtual --
 -0.334  -0.220  -0.177  -0.154  -0.153  -0.127  -0.119  -0.111
 -0.108  -0.098  -0.095  -0.090  -0.086  -0.081  -0.074  -0.070
 -0.060  -0.044  -0.036  -0.035  -0.024  -0.024  -0.017  -0.007
 -0.007  -0.000   0.003   0.009   0.009   0.015   0.015   0.022
  0.025   0.028   0.029   0.035   0.040   0.044   0.044   0.049
  0.058   0.069   0.073   0.080   0.080   0.093   0.096   0.102
  0.104   0.106   0.114   0.116   0.123   0.138   0.146   0.152
  0.159   0.168   0.175   0.189   0.200   0.209   0.223   0.232
  0.239   0.267   0.304   0.310   0.360   0.363   0.382   0.390
  0.406   0.412   0.449   0.455   0.468   0.473   0.501   0.504
  0.511   0.525   0.540   0.559   0.560   0.576   0.596   0.597
  0.616   0.618   0.643   0.657   0.666   0.670   0.703   0.745
  0.763   0.771   0.783   0.806   0.816   0.820   0.828   0.831
  0.846   0.853   0.865   0.866   0.906   0.919   0.922   0.932
  0.942   0.984   1.008   1.015   1.061   1.083   1.101   1.151
  1.166   1.168   1.176   1.185   1.212   1.259   1.277   1.320
  1.352   1.422   1.491   1.529   1.550   1.649   1.662   1.715
  1.728   1.735   1.752   1.785   1.818   1.844   1.850   1.903
  1.907   1.945   1.966   1.987   2.008   2.054   2.068   2.082
  2.166   2.204   2.207   2.242   2.268   2.285   2.301   2.324
  2.332   2.349   2.356   2.405   2.412   2.430   2.480   2.522
  2.528   2.577   2.662   2.665   2.717   2.747   2.978   3.011
  3.106   3.109   3.228   3.243   3.548   3.568   3.799   3.801
  4.087   4.098   4.140   4.150   4.243   4.347   4.490   4.528
 --------------------------------------------------------------
 
          Ground-State Mulliken Net Atomic Charges

     Atom                 Charge (a.u.)    Spin (a.u.)
  --------------------------------------------------------
      1 S                     0.149351      -0.052906
      2 C                     0.098715       0.320874
      3 H                     0.250216      -0.016197
      4 C                    -0.386586      -0.031816
      5 H                     0.170520       0.001177
      6 C                     0.165675       0.153049
      7 H                     0.170443      -0.009191
      8 C                    -0.113760       0.135422
      9 C                    -0.123038       0.134701
     10 C                     0.164533       0.152733
     11 H                     0.170403      -0.009161
     12 C                    -0.385907      -0.031794
     13 H                     0.170351       0.001173
     14 C                     0.097628       0.320853
     15 H                     0.250177      -0.016213
     16 S                     0.151280      -0.052704
  --------------------------------------------------------
  Sum of atomic charges =     1.000000
  Sum of spin   charges =     1.000000

 -----------------------------------------------------------------
                    Cartesian Multipole Moments
 -----------------------------------------------------------------
    Charge (ESU x 10^10)
                 4.8032
    Dipole Moment (Debye)
         X      -3.2207      Y      -0.1841      Z     -10.2830
       Tot      10.7771
    Quadrupole Moments (Debye-Ang)
        XX     -33.4729     XY       0.8389     YY     -68.0408
        XZ      23.7551     YZ      -5.3012     ZZ     -28.2043
    Octopole Moments (Debye-Ang^2)
       XXX      90.7300    XXY     -24.7904    XYY      39.5175
       YYY     -39.6727    XXZ      33.7670    XYZ       3.8951
       YYZ     133.8223    XZZ     -47.0585    YZZ      14.7142
       ZZZ     263.4543
    Hexadecapole Moments (Debye-Ang^3)
      XXXX   -1217.5062   XXXY      84.7025   XXYY    -292.8346
      XYYY      56.0005   YYYY    -261.5714   XXXZ    -347.1348
      XXYZ      55.6634   XYYZ    -197.0707   YYYZ     181.4727
      XXZZ    -282.4235   XYZZ     -38.3390   YYZZ    -462.8370
      XZZZ    -226.9400   YZZZ      39.7457   ZZZZ   -2026.0619
 -----------------------------------------------------------------
Archival summary:
1\1\nid00866\OPT\ProcedureUnspecified\BasisUnspecified\286(1+,2)\bwood\WedMay3102:27:202017WedMay3102:27:202017\0\\#,OPT,ProcedureUnspecified,BasisUnspecified,\\1,2\S\C,1,1.7171\H,2,1.08372,1,119.815\C,2,1.39502,1,113.117,3,-178.451,0\H,4,1.08333,2,123.121,1,-177.749,0\C,4,1.39454,2,112.471,1,1.3824,0\H,6,1.08412,4,124.354,2,-178.094,0\C,6,1.41521,4,113.171,2,0.0736153,0\C,8,1.41984,6,127.652,4,-165.975,0\C,9,1.4151,8,127.521,6,120,0\H,10,1.08417,9,122.483,8,12.0323,0\C,10,1.39451,9,113.171,8,-166.149,0\H,12,1.08331,10,124.409,9,179.188,0\C,12,1.39508,10,112.476,9,0.0692903,0\H,14,1.08372,12,127.074,10,-176.919,0\S,14,1.71718,12,113.109,10,1.39101,0\\\@

 Total job time:  93.43s(wall), 93.42s(cpu) 
 Wed May 31 02:27:20 2017

        *************************************************************
        *                                                           *
        *  Thank you very much for using Q-Chem.  Have a nice day.  *
        *                                                           *
        *************************************************************


0 sent ACK to 0 
now end server 0 ... 
