srun -N 1 --ntasks-per-node 16 --cpus-per-task 4 --cpu_bind=cores --nodelist nid00815 /global/project/projectdirs/jcesr/qchem/qc44/cnl_qc441/dist/exe/qcprog.cori.haswell.exe .pt_n2_cation_70.0.in.27025.qcin.1 /global/cscratch1/sd/bwood/qchem/nx/qchem27025/
Process 1 of 16 is on nid00815 - thread support 0
Process 2 of 16 is on nid00815 - thread support 0
Process 3 of 16 is on nid00815 - thread support 0
Process 4 of 16 is on nid00815 - thread support 0
Process 5 of 16 is on nid00815 - thread support 0
Process 6 of 16 is on nid00815 - thread support 0
Process 0 of 16 is on nid00815 - thread support 0
initial socket setup ...start
Process 15 of 16 is on nid00815 - thread support 0
initial socket setup ...done 
now start server 0 ... 
nid00815 10.128.3
Q-Chem Developer Version! Running on 10.128.3.*
                  Welcome to Q-Chem
     A Quantum Leap Into The Future Of Chemistry


 Q-Chem 4.4, Q-Chem, Inc., Pleasanton, CA (2016)

 Y. Shao,  Z. Gan,  E. Epifanovsky,  A. T. B. Gilbert,  M. Wormit,  
 J. Kussmann,  A. W. Lange,  A. Behn,  J. Deng,  X. Feng,  D. Ghosh,  
 M. Goldey,  P. R. Horn,  L. D. Jacobson,  I. Kaliman,  F. Rob,  
 R. Z. Khaliullin,  T. Kus,  A. Landau,  J. Liu,  E. I. Proynov,  Y. M. Rhee,  
 R. M. Richard,  M. A. Rohrdanz,  R. P. Steele,  E. J. Sundstrom,  
 H. L. Woodcock III,  P. M. Zimmerman,  D. Zuev,  B. Albrecht,  E. Alguire,  
 B. Austin,  S. A. Baeppler,  G. J. O. Beran,  Y. A. Bernard,  
 E. J. Berquist,  K. Brandhorst,  K. B. Bravaya,  S. T. Brown,  D. Casanova,  
 C.-M. Chang,  Y. Chen,  S. H. Chien,  K. D. Closser,  M. P. Coons,  
 D. L. Crittenden,  S. Dasgupta,  M. Diedenhofen,  R. A. DiStasio Jr.,  
 H. Do,  A. D. Dutoi,  R. G. Edgar,  P.-T. Fang,  S. Fatehi,  Q. Feng,  
 L. Fusti-Molnar,  A. Ghysels,  A. Golubeva-Zadorozhnaya,  J. Gomes,  
 A. Gunina,  M. W. D. Hanson-Heine,  P. H. P. Harbach,  A. W. Hauser,  
 J. E. Herr,  E. G. Hohenstein,  Z. C. Holden,  K. Hui,  T.-C. Jagau,  H. Ji,  
 B. Kaduk,  K. Khistyaev,  Jaehoon Kim,  Jihan Kim,  R. A. King,  
 P. Klunzinger,  K. Koh,  D. Kosenkov,  T. Kowalczyk,  C. M. Krauter,  
 A. Kunitsa,  K. U. Lao,  A. Laurent,  K. V. Lawler,  J. Lee,  D. Lefrancois,  
 S. Lehtola,  S. V. Levchenko,  C. Y. Lin,  Y.-S. Lin,  F. Liu,  E. Livshits,  
 R. C. Lochan,  A. Luenser,  P. Manohar,  S. F. Manzer,  S.-P. Mao,  Y. Mao,  
 N. Mardirossian,  A. V. Marenich,  L. A. Martinez-Martinez,  S. A. Maurer,  
 N. J. Mayhall,  J.-M. Mewes,  A. F. Morrison,  K. Nanda,  T. S. Nguyen-Beck,  
 C. M. Oana,  R. Olivares-Amaya,  D. P. O'Neill,  J. A. Parkhill,  
 T. M. Perrine,  R. Peverati,  P. A. Pieniazek,  F. Plasser,  A. Prociuk,  
 D. R. Rehn,  E. Rosta,  N. J. Russ,  N. Sergueev,  S. M. Sharada,  
 S. Sharma,  D. W. Small,  A. Sodt,  T. Stauch,  T. Stein,  D. Stuck,  
 Y.-C. Su,  A. J. W. Thom,  T. Tsuchimochi,  L. Vogt,  O. Vydrov,  T. Wang,  
 M. A. Watson,  J. Wenzel,  A. White,  C. F. Williams,  V. Vanovschi,  
 K. Yao,  S. Yeganeh,  S. R. Yost,  Z.-Q. You,  I. Y. Zhang,  X. Zhang,  
 Y. Zhao,  B. R. Brooks,  G. K. L. Chan,  D. M. Chipman,  C. J. Cramer,  
 W. A. Goddard III,  M. S. Gordon,  W. J. Hehre,  A. Klamt,  
 H. F. Schaefer III,  M. W. Schmidt,  C. D. Sherrill,  D. G. Truhlar,  
 A. Warshel,  X. Xu,  A. Aspuru-Guzik,  R. Baer,  A. T. Bell,  N. A. Besley,  
 J.-D. Chai,  A. Dreuw,  B. D. Dunietz,  T. R. Furlani,  S. R. Gwaltney,  
 C.-P. Hsu,  Y. Jung,  J. Kong,  D. S. Lambrecht,  W. Liang,  C. Ochsenfeld,  
 V. A. Rassolov,  L. V. Slipchenko,  J. E. Subotnik,  T. Van Voorhis,  
 J. M. Herbert,  A. I. Krylov,  P. M. W. Gill,  M. Head-Gordon

 Contributors to earlier versions of Q-Chem not listed above: 
 R. D. Adamson,  J. Baker,  E. F. C. Byrd,  A. K. Chakraborty,  C.-L. Cheng,  
 H. Dachsel,  R. J. Doerksen,  G. Hawkins,  A. Heyden,  S. Hirata,  
 G. Kedziora,  F. J. Keil,  C. Kelley,  P. P. Korambath,  W. Kurlancheek,  
 A. M. Lee,  M. S. Lee,  D. Liotard,  I. Lotan,  P. E. Maslen,  N. Nair,  
 D. Neuhauser,  R. Olson,  B. Peters,  J. Ritchie,  N. E. Schultz,  
 N. Shenvi,  A. C. Simmonett,  K. S. Thanthiriwatte,  Q. Wu,  W. Zhang

 Please cite Q-Chem as follows:
 Y. Shao et al., Mol. Phys. 113, 184-215 (2015)
 DOI: 10.1080/00268976.2014.952696

 Q-Chem 4.4.2 for Intel X86 EM64T Linux

 Parts of Q-Chem use Armadillo 5.200.1 (Boston Tea Smuggler).
 http://arma.sourceforge.net/

 Q-Chem begins on Wed May 31 02:25:56 2017  

Host: nid00776
0

     Scratch files written to /global/cscratch1/sd/bwood/qchem/nx/qchem27025.0//
 Parallel job on  16  processors

Checking the input file for inconsistencies... 	...done.

--------------------------------------------------------------
User input:
--------------------------------------------------------------
$molecule
 1  2
 S           0.00238887        0.06077275        0.00183269
 C           1.73707619        0.03315849        0.00323229
 H           2.27612737        0.05289032        0.94042557
 C           2.24169204       -0.01546201       -1.26965798
 H           3.30285780       -0.04005365       -1.48972496
 C           1.22479222       -0.01612968       -2.26811464
 H           1.42674790       -0.02650987       -3.33334501
 C          -0.05393771        0.02880388       -1.75170966
 C          -1.32450815        0.04889988       -2.45636342
 C          -1.93317100       -0.95762694       -3.17780069
 H          -1.49975587       -1.94548650       -3.28781381
 C          -3.19197320       -0.58070848       -3.72937501
 H          -3.81552608       -1.24405170       -4.31780701
 C          -3.54033841        0.70927600       -3.42652868
 H          -4.43590320        1.24740017       -3.70557588
 S          -2.32170939        1.49321864       -2.47263533
$end


$rem
         jobtype = opt
        exchange = b3lyp
           basis = 6-31++g**
  max_scf_cycles = 150
      mem_static = 775
       mem_total = 7750
      sym_ignore = true
        symmetry = false
          thresh = 12
$end


$opt
CONSTRAINT
tors 6 8 9 10 70.0
ENDCONSTRAINT
$end

--------------------------------------------------------------
 ----------------------------------------------------------------
             Standard Nuclear Orientation (Angstroms)
    I     Atom           X                Y                Z
 ----------------------------------------------------------------
    1      S       0.0023888700     0.0607727500     0.0018326900
    2      C       1.7370761900     0.0331584900     0.0032322900
    3      H       2.2761273700     0.0528903200     0.9404255700
    4      C       2.2416920400    -0.0154620100    -1.2696579800
    5      H       3.3028578000    -0.0400536500    -1.4897249600
    6      C       1.2247922200    -0.0161296800    -2.2681146400
    7      H       1.4267479000    -0.0265098700    -3.3333450100
    8      C      -0.0539377100     0.0288038800    -1.7517096600
    9      C      -1.3245081500     0.0488998800    -2.4563634200
   10      C      -1.9331710000    -0.9576269400    -3.1778006900
   11      H      -1.4997558700    -1.9454865000    -3.2878138100
   12      C      -3.1919732000    -0.5807084800    -3.7293750100
   13      H      -3.8155260800    -1.2440517000    -4.3178070100
   14      C      -3.5403384100     0.7092760000    -3.4265286800
   15      H      -4.4359032000     1.2474001700    -3.7055758800
   16      S      -2.3217093900     1.4932186400    -2.4726353300
 ----------------------------------------------------------------
 Nuclear Repulsion Energy =   629.5915733006 hartrees
 There are       43 alpha and       42 beta electrons
 Requested basis set is 6-31++G(d,p)
 There are 76 shells and 234 basis functions

 Total QAlloc Memory Limit   7750 MB
 Mega-Array Size       758 MB
 MEM_STATIC part       775 MB
 A cutoff of  1.0D-12 yielded   2527 shell pairs
 There are     24921 function pairs

 Q-Chem warning in module /project/projectdirs/jcesr/qchem/qc44/cnl_qc441/compile/cori/qc_src/libqints/qchem/aobasis.C, line 68:

 Using reconstructed effective core potential

 
 -------------------------------------------------------
 OpenMP Integral Computing Module                       
 Release: version 1.0, May 2013, Q-Chem Inc. Pittsburgh 
 -------------------------------------------------------
 Integral Job Info:
 Integral job number is                      11
 Integral operator is                         1
 short-range coefficients                     0
 long-range coefficients              100000000
 Omega coefficients                           0
 if combine SR and LR in K                    0
 Integral screening is                        0
 Integral computing path is                   2
 max size of driver memory is            800000
 size of driver memory is                593474
 size of scratch memory is             15166112
 max col of scratch BK array               1296
 max len of scratch array in speh3          155
 max len of scratch index in speh4           18
 max int batch size is                      520
 min int batch size is                       52
 fixed nKL is                                52
 max L of basis functions is                  2
 order of int derivative is                   0
 number of shells is                         76
 number of basis is                         234
 number of cartesian basis is               234
 number of contracted shell pairs          2527
 number of primitive shell pairs           8215
 maxK2 (contraction) of shell pair           36
 max number of K2 of shell pair               1
 max number of CS2 of shell pair            262
 max number of PS2 of shell pair           1500
 mem total for path MDJ                   51992
 -------------------------------------------------------
 Smallest overlap matrix eigenvalue = 1.14E-06

 Scale SEOQF with 1.000000e-01/1.000000e-01/1.000000e-01

 Standard Electronic Orientation quadrupole field applied
 Nucleus-field energy     =    -0.0000000329 hartrees
 Guess from superposition of atomic densities
 Warning:  Energy on first SCF cycle will be non-variational
 An unrestricted hybrid HF-DFT SCF calculation will be
 performed using Pulay DIIS extrapolation
 Exchange:     0.2000 Hartree-Fock + 0.0800 Slater + 0.7200 B88
 Correlation:  0.1900 VWN1RPA + 0.8100 LYP
 Using SG-1 standard quadrature grid
 SCF converges when DIIS error is below 1.0E-08
 Inaccurate integrated density:
   Number of electrons =    85
   Numerical integral  =    86.000478791408
   Relative error      =     1.1770338722 %
 ---------------------------------------
  Cycle       Energy         DIIS Error
 ---------------------------------------
    1   -1107.1622473209      4.40E-02
    2   -1104.4333643669      3.72E-03
    3   -1104.2109312800      6.26E-03
    4   -1104.5339490106      9.74E-04
    5   -1104.5365234035      8.06E-04
    6   -1104.5420657038      2.76E-04
    7   -1104.5427194265      1.21E-04
    8   -1104.5428709156      3.76E-05
    9   -1104.5429100367      2.15E-05
   10   -1104.5429428863      1.08E-05
   11   -1104.5429619817      4.93E-06
   12   -1104.5429648938      3.55E-06
   13   -1104.5429659278      1.20E-06
   14   -1104.5429662085      3.99E-07
   15   -1104.5429662287      2.53E-07
   16   -1104.5429662375      7.35E-08
   17   -1104.5429662397      4.68E-08
   18   -1104.5429662394      3.52E-08
   19   -1104.5429662386      2.08E-08
   20   -1104.5429662397      1.10E-08
   21   -1104.5429662395      4.00E-09 Convergence criterion met
 ---------------------------------------
 <S^2> = 0.7593
 SCF time:  CPU 14.05 s  wall 13.35 s
 SCF   energy in the final basis set = -1104.5429662395
 Total energy in the final basis set = -1104.5429662395
 
 --------------------------------------------------------------
 
                    Orbital Energies (a.u.)
 --------------------------------------------------------------
 
 Alpha MOs
 -- Occupied --
-89.094 -89.094 -10.433 -10.433 -10.416 -10.416 -10.390 -10.390
-10.381 -10.381  -8.153  -8.153  -6.118  -6.118  -6.113  -6.113
 -6.110  -6.110  -1.086  -1.062  -0.959  -0.922  -0.917  -0.892
 -0.786  -0.748  -0.740  -0.710  -0.697  -0.653  -0.598  -0.594
 -0.592  -0.582  -0.575  -0.555  -0.554  -0.522  -0.521  -0.447
 -0.436  -0.429  -0.423
 -- Virtual --
 -0.224  -0.206  -0.154  -0.146  -0.135  -0.130  -0.124  -0.107
 -0.095  -0.094  -0.090  -0.087  -0.078  -0.078  -0.063  -0.063
 -0.047  -0.042  -0.036  -0.026  -0.024  -0.017  -0.016  -0.003
 -0.001  -0.000   0.003   0.004   0.014   0.015   0.023   0.025
  0.026   0.027   0.032   0.036   0.039   0.051   0.053   0.058
  0.062   0.065   0.070   0.077   0.078   0.092   0.094   0.109
  0.112   0.117   0.123   0.138   0.140   0.145   0.145   0.161
  0.165   0.176   0.177   0.189   0.218   0.227   0.234   0.248
  0.279   0.304   0.312   0.339   0.364   0.370   0.396   0.416
  0.425   0.430   0.450   0.479   0.481   0.484   0.504   0.505
  0.521   0.536   0.563   0.564   0.572   0.590   0.599   0.606
  0.609   0.635   0.635   0.660   0.675   0.730   0.736   0.766
  0.785   0.791   0.796   0.806   0.811   0.836   0.838   0.845
  0.857   0.861   0.874   0.889   0.914   0.929   0.937   0.939
  0.968   1.013   1.036   1.048   1.072   1.113   1.149   1.165
  1.170   1.186   1.187   1.212   1.282   1.289   1.316   1.351
  1.389   1.507   1.509   1.611   1.621   1.670   1.703   1.708
  1.740   1.747   1.764   1.777   1.844   1.845   1.889   1.902
  1.952   1.983   2.006   2.024   2.030   2.066   2.074   2.149
  2.198   2.204   2.255   2.265   2.290   2.301   2.320   2.337
  2.344   2.356   2.414   2.415   2.452   2.453   2.523   2.533
  2.580   2.631   2.695   2.700   2.762   2.983   3.010   3.109
  3.110   3.233   3.258   3.549   3.571   3.788   3.804   4.088
  4.131   4.133   4.150   4.245   4.346   4.480   4.532
 
 Beta MOs
 -- Occupied --
-89.094 -89.094 -10.430 -10.430 -10.413 -10.413 -10.389 -10.389
-10.380 -10.380  -8.153  -8.153  -6.118  -6.118  -6.114  -6.113
 -6.110  -6.110  -1.080  -1.057  -0.950  -0.920  -0.915  -0.882
 -0.781  -0.743  -0.734  -0.707  -0.695  -0.650  -0.594  -0.588
 -0.586  -0.578  -0.572  -0.545  -0.541  -0.521  -0.519  -0.433
 -0.427  -0.417
 -- Virtual --
 -0.359  -0.207  -0.189  -0.151  -0.143  -0.126  -0.123  -0.120
 -0.107  -0.094  -0.093  -0.089  -0.086  -0.077  -0.077  -0.062
 -0.061  -0.045  -0.041  -0.036  -0.025  -0.023  -0.016  -0.015
 -0.003   0.000   0.001   0.005   0.005   0.014   0.017   0.025
  0.026   0.027   0.028   0.034   0.037   0.041   0.052   0.055
  0.059   0.063   0.065   0.071   0.078   0.079   0.093   0.095
  0.110   0.113   0.118   0.124   0.139   0.141   0.147   0.148
  0.163   0.167   0.178   0.179   0.190   0.220   0.229   0.236
  0.250   0.281   0.306   0.314   0.341   0.366   0.371   0.397
  0.418   0.426   0.431   0.451   0.485   0.487   0.489   0.510
  0.511   0.524   0.538   0.565   0.566   0.574   0.597   0.604
  0.610   0.614   0.637   0.640   0.665   0.679   0.732   0.739
  0.772   0.788   0.795   0.798   0.808   0.813   0.837   0.839
  0.849   0.859   0.862   0.876   0.890   0.916   0.931   0.939
  0.941   0.971   1.017   1.040   1.053   1.075   1.117   1.151
  1.173   1.179   1.191   1.192   1.216   1.286   1.294   1.323
  1.357   1.396   1.520   1.521   1.616   1.630   1.677   1.708
  1.711   1.742   1.752   1.767   1.783   1.849   1.850   1.893
  1.908   1.960   1.993   2.013   2.033   2.041   2.070   2.081
  2.154   2.201   2.207   2.259   2.272   2.292   2.305   2.324
  2.342   2.347   2.361   2.418   2.419   2.455   2.457   2.527
  2.537   2.585   2.634   2.697   2.702   2.765   2.984   3.012
  3.109   3.111   3.235   3.260   3.551   3.572   3.788   3.804
  4.095   4.134   4.139   4.154   4.252   4.353   4.484   4.536
 --------------------------------------------------------------
 
          Ground-State Mulliken Net Atomic Charges

     Atom                 Charge (a.u.)    Spin (a.u.)
  --------------------------------------------------------
      1 S                     0.118584      -0.047776
      2 C                     0.093918       0.279451
      3 H                     0.248556      -0.012693
      4 C                    -0.423472       0.007380
      5 H                     0.172728      -0.001454
      6 C                     0.387188       0.062634
      7 H                     0.184199      -0.005055
      8 C                    -0.284949       0.217632
      9 C                    -0.280151       0.217479
     10 C                     0.388606       0.062547
     11 H                     0.184035      -0.005010
     12 C                    -0.422927       0.007482
     13 H                     0.172715      -0.001463
     14 C                     0.094254       0.279120
     15 H                     0.248567      -0.012688
     16 S                     0.118149      -0.047586
  --------------------------------------------------------
  Sum of atomic charges =     1.000000
  Sum of spin   charges =     1.000000

 -----------------------------------------------------------------
                    Cartesian Multipole Moments
 -----------------------------------------------------------------
    Charge (ESU x 10^10)
                 4.8032
    Dipole Moment (Debye)
         X      -3.2347      Y       0.0623      Z     -10.2482
       Tot      10.7468
    Quadrupole Moments (Debye-Ang)
        XX     -30.6029     XY      -2.5481     YY     -65.7013
        XZ      24.9418     YZ       1.4939     ZZ     -31.9540
    Octopole Moments (Debye-Ang^2)
       XXX      88.8917    XXY       1.1303    XYY      35.8905
       YYY     -43.8825    XXZ      16.2125    XYZ       5.1977
       YYZ     114.9870    XZZ     -33.5739    YZZ     -23.6636
       ZZZ     278.1032
    Hexadecapole Moments (Debye-Ang^3)
      XXXX   -1285.0221   XXXY      30.2327   XXYY    -307.8029
      XYYY      99.8891   YYYY    -307.4434   XXXZ    -290.1683
      XXYZ     -12.0289   XYYZ    -168.0702   YYYZ      91.6036
      XXZZ    -248.1569   XYZZ      34.4738   YYZZ    -379.3207
      XZZZ    -347.9999   YZZZ     131.4500   ZZZZ   -1917.2229
 -----------------------------------------------------------------
 Calculating analytic gradient of the SCF energy
 Gradient of SCF Energy
            1           2           3           4           5           6
    1   0.0014895   0.0179778  -0.0007346   0.0006923   0.0003149  -0.0296974
    2  -0.0099089  -0.0007644   0.0030597  -0.0023344  -0.0012771   0.0108511
    3  -0.0121347  -0.0099726  -0.0012863   0.0295854   0.0006679   0.0024110
            7           8           9          10          11          12
    1  -0.0003220   0.0183887  -0.0104004   0.0148012   0.0000833  -0.0152247
    2   0.0003261   0.0022177  -0.0147822   0.0126154  -0.0000539   0.0250997
    3  -0.0000623  -0.0066191  -0.0078068   0.0249697   0.0004312  -0.0024527
           13          14          15          16
    1   0.0000157  -0.0069840  -0.0002020   0.0098017
    2   0.0008180  -0.0163790  -0.0016242  -0.0078635
    3  -0.0012228  -0.0102891   0.0029705  -0.0091892
 Max gradient component =       2.970E-02
 RMS gradient           =       1.108E-02
 Gradient time:  CPU 1.90 s  wall 1.91 s
 Geometry Optimization Parameters
   NAtoms,    NIC,     NZ,  NCons,   NDum,   NFix, NCnnct, MaxDiis
       16     111       0       1       0       0       0       0


** CONSTRAINED OPTIMIZATION IN DELOCALIZED INTERNAL COORDINATES **
   Searching for a Minimum

   Optimization Cycle:   1

                       Coordinates (Angstroms)
     ATOM                X               Y               Z
      1  S         0.0023888700    0.0607727500    0.0018326900
      2  C         1.7370761900    0.0331584900    0.0032322900
      3  H         2.2761273700    0.0528903200    0.9404255700
      4  C         2.2416920400   -0.0154620100   -1.2696579800
      5  H         3.3028578000   -0.0400536500   -1.4897249600
      6  C         1.2247922200   -0.0161296800   -2.2681146400
      7  H         1.4267479000   -0.0265098700   -3.3333450100
      8  C        -0.0539377100    0.0288038800   -1.7517096600
      9  C        -1.3245081500    0.0488998800   -2.4563634200
     10  C        -1.9331710000   -0.9576269400   -3.1778006900
     11  H        -1.4997558700   -1.9454865000   -3.2878138100
     12  C        -3.1919732000   -0.5807084800   -3.7293750100
     13  H        -3.8155260800   -1.2440517000   -4.3178070100
     14  C        -3.5403384100    0.7092760000   -3.4265286800
     15  H        -4.4359032000    1.2474001700   -3.7055758800
     16  S        -2.3217093900    1.4932186400   -2.4726353300
   Point Group: c1    Number of degrees of freedom:    42


   Energy is  -1104.542966240

              Constraints and their Current Values
                                        Value     Constraint
   Dihedral:        6   8   9  10       70.000       70.000

 Attempting to Generate Delocalized Internal Coordinates

 41 Hessian modes will be used to form the next step
  Hessian Eigenvalues:
     0.045000    0.045000    0.045000    0.045000    0.045000    0.045000
     0.045002    0.045002    0.045003    0.045004    0.045011    0.045012
     0.159943    0.159949    0.159991    0.159992    0.160000    0.160000
     0.221282    0.221282    0.237835    0.237839    0.250000    0.250000
     0.294264    0.294663    0.312518    0.312618    0.354736    0.354850
     0.355125    0.355132    0.358226    0.358329    0.378510    0.404854
     0.404909    0.463547    0.463616    0.497922    0.497945

 Minimum Search - Taking Simple RFO Step
 Searching for Lamda that Minimizes Along All modes
 Value Taken    Lamda =  -0.01243264
 Calculated Step too Large.  Step scaled by  0.961152
 Step Taken.  Stepsize is  0.300000

                             Maximum     Tolerance    Cnvgd?
         Gradient           0.027764      0.000300      NO
         Displacement       0.157186      0.001200      NO
         Energy change     *********      0.000001      NO


 New Cartesian Coordinates Obtained by Inverse Iteration

 Displacement from previous Coordinates is:  0.414477
 ----------------------------------------------------------------
             Standard Nuclear Orientation (Angstroms)
    I     Atom           X                Y                Z
 ----------------------------------------------------------------
    1      S      -0.0377930960     0.1412286752     0.0110513151
    2      C       1.6892820788     0.0595380238    -0.0113069843
    3      H       2.2288129475     0.0825356594     0.9277949196
    4      C       2.2227930675    -0.0200649525    -1.2933441697
    5      H       3.2854054797    -0.0530983342    -1.5037106292
    6      C       1.2294864296    -0.0568381908    -2.2827080457
    7      H       1.4324341570    -0.0986006197    -3.3469779708
    8      C      -0.0629448686     0.0088538514    -1.7478650732
    9      C      -1.3113063355     0.0614286560    -2.4681356774
   10      C      -1.9104918149    -0.9608723082    -3.2143150839
   11      H      -1.4639054332    -1.9394155990    -3.3511844580
   12      C      -3.1638274405    -0.5905078769    -3.7234229264
   13      H      -3.7895934607    -1.2437402514    -4.3203750211
   14      C      -3.5104443381     0.7115204639    -3.3785384586
   15      H      -4.4084088674     1.2506152062    -3.6554683724
   16      S      -2.3346391252     1.4958088970    -2.3824548942
 ----------------------------------------------------------------
 Nuclear Repulsion Energy =   630.2626320639 hartrees
 There are       43 alpha and       42 beta electrons
 Applying Cartesian multipole field
    Component          Value
    ---------          -----
     (2,0,0)        1.00000E-11
     (0,2,0)        2.00000E-11
     (0,0,2)       -3.00000E-11
 Nucleus-field energy     =    -0.0000000323 hartrees
 Requested basis set is 6-31++G(d,p)
 There are 76 shells and 234 basis functions
 A cutoff of  1.0D-12 yielded   2527 shell pairs
 There are     24921 function pairs

 Q-Chem warning in module /project/projectdirs/jcesr/qchem/qc44/cnl_qc441/compile/cori/qc_src/libqints/qchem/aobasis.C, line 68:

 Using reconstructed effective core potential

 Smallest overlap matrix eigenvalue = 1.16E-06
 Guess MOs from SCF MO coefficient file
 Reading MOs from coefficient file
 Reading MOs from coefficient file
 An unrestricted hybrid HF-DFT SCF calculation will be
 performed using Pulay DIIS extrapolation
 Exchange:     0.2000 Hartree-Fock + 0.0800 Slater + 0.7200 B88
 Correlation:  0.1900 VWN1RPA + 0.8100 LYP
 Using SG-1 standard quadrature grid
 SCF converges when DIIS error is below 1.0E-08
 Geometry optimization detected.  Setting ReadMinima to 0
 Setting SaveMinima to 0
 ---------------------------------------
  Cycle       Energy         DIIS Error
 ---------------------------------------
    1   -1104.4987567598      2.38E-03
    2   -1104.5483710076      4.62E-04
    3   -1104.5464332742      7.13E-04
    4   -1104.5501131072      9.53E-05
    5   -1104.5501667281      4.84E-05
    6   -1104.5501851026      1.36E-05
    7   -1104.5501867217      8.28E-06
    8   -1104.5501875397      1.88E-06
    9   -1104.5501876995      1.17E-06
   10   -1104.5501877659      7.24E-07
   11   -1104.5501878356      3.26E-07
   12   -1104.5501878655      1.86E-07
   13   -1104.5501878688      6.71E-08
   14   -1104.5501878691      3.86E-08
   15   -1104.5501878693      1.41E-08
   16   -1104.5501878702      4.22E-09 Convergence criterion met
 ---------------------------------------
 <S^2> = 0.7612
 SCF time:  CPU 11.01 s  wall 11.07 s
 SCF   energy in the final basis set = -1104.5501878702
 Total energy in the final basis set = -1104.5501878702
 
 --------------------------------------------------------------
 
                    Orbital Energies (a.u.)
 --------------------------------------------------------------
 
 Alpha MOs
 -- Occupied --
-89.098 -89.098 -10.431 -10.431 -10.416 -10.416 -10.389 -10.389
-10.379 -10.379  -8.156  -8.156  -6.121  -6.121  -6.117  -6.116
 -6.113  -6.113  -1.083  -1.059  -0.954  -0.927  -0.922  -0.881
 -0.783  -0.747  -0.736  -0.711  -0.698  -0.647  -0.593  -0.591
 -0.587  -0.580  -0.575  -0.554  -0.550  -0.531  -0.528  -0.445
 -0.439  -0.432  -0.412
 -- Virtual --
 -0.228  -0.208  -0.159  -0.149  -0.134  -0.130  -0.125  -0.107
 -0.095  -0.094  -0.091  -0.086  -0.079  -0.077  -0.063  -0.060
 -0.046  -0.042  -0.035  -0.026  -0.024  -0.017  -0.016  -0.003
 -0.000   0.002   0.005   0.005   0.013   0.015   0.023   0.024
  0.026   0.030   0.032   0.034   0.039   0.050   0.056   0.057
  0.062   0.063   0.069   0.078   0.082   0.094   0.094   0.109
  0.110   0.116   0.119   0.134   0.141   0.142   0.146   0.160
  0.171   0.179   0.181   0.194   0.217   0.224   0.232   0.248
  0.279   0.302   0.314   0.344   0.364   0.364   0.398   0.407
  0.416   0.429   0.453   0.469   0.486   0.489   0.502   0.504
  0.529   0.541   0.559   0.563   0.579   0.588   0.597   0.607
  0.612   0.633   0.635   0.658   0.673   0.728   0.732   0.763
  0.783   0.790   0.792   0.807   0.814   0.831   0.831   0.844
  0.854   0.859   0.874   0.890   0.907   0.923   0.937   0.942
  0.973   1.020   1.039   1.056   1.079   1.117   1.152   1.168
  1.169   1.185   1.189   1.206   1.261   1.297   1.302   1.357
  1.392   1.507   1.508   1.597   1.621   1.675   1.714   1.728
  1.741   1.745   1.772   1.777   1.845   1.852   1.889   1.899
  1.950   1.980   2.000   2.028   2.033   2.070   2.071   2.136
  2.199   2.206   2.253   2.263   2.290   2.297   2.319   2.336
  2.343   2.351   2.404   2.407   2.436   2.457   2.524   2.532
  2.590   2.628   2.693   2.698   2.753   2.980   3.004   3.106
  3.109   3.229   3.252   3.550   3.573   3.779   3.806   4.086
  4.126   4.136   4.152   4.246   4.344   4.486   4.535
 
 Beta MOs
 -- Occupied --
-89.098 -89.098 -10.429 -10.428 -10.413 -10.413 -10.388 -10.388
-10.379 -10.379  -8.156  -8.156  -6.121  -6.121  -6.117  -6.117
 -6.114  -6.113  -1.077  -1.053  -0.945  -0.925  -0.920  -0.871
 -0.778  -0.743  -0.731  -0.709  -0.696  -0.644  -0.588  -0.584
 -0.584  -0.576  -0.572  -0.542  -0.540  -0.530  -0.527  -0.437
 -0.432  -0.415
 -- Virtual --
 -0.347  -0.211  -0.192  -0.155  -0.146  -0.125  -0.123  -0.120
 -0.106  -0.094  -0.093  -0.090  -0.085  -0.078  -0.076  -0.062
 -0.059  -0.044  -0.041  -0.035  -0.025  -0.023  -0.016  -0.015
 -0.003   0.001   0.003   0.006   0.007   0.013   0.018   0.024
  0.025   0.027   0.031   0.034   0.035   0.040   0.051   0.057
  0.059   0.063   0.064   0.070   0.079   0.083   0.095   0.095
  0.109   0.111   0.118   0.120   0.136   0.142   0.143   0.148
  0.162   0.173   0.181   0.183   0.195   0.218   0.226   0.234
  0.250   0.281   0.304   0.316   0.347   0.364   0.365   0.400
  0.410   0.418   0.430   0.454   0.473   0.495   0.496   0.506
  0.511   0.531   0.543   0.561   0.565   0.582   0.595   0.602
  0.610   0.615   0.635   0.640   0.663   0.678   0.730   0.734
  0.769   0.786   0.793   0.794   0.809   0.816   0.832   0.833
  0.846   0.857   0.860   0.876   0.891   0.909   0.924   0.940
  0.943   0.977   1.024   1.045   1.061   1.082   1.120   1.155
  1.176   1.177   1.189   1.193   1.211   1.266   1.302   1.309
  1.362   1.399   1.520   1.520   1.606   1.626   1.681   1.717
  1.734   1.743   1.750   1.776   1.782   1.849   1.857   1.893
  1.906   1.958   1.990   2.006   2.039   2.044   2.075   2.076
  2.141   2.203   2.209   2.259   2.268   2.293   2.301   2.323
  2.341   2.346   2.355   2.408   2.412   2.439   2.461   2.529
  2.535   2.595   2.632   2.696   2.700   2.756   2.981   3.006
  3.107   3.109   3.230   3.253   3.551   3.574   3.780   3.807
  4.093   4.133   4.139   4.155   4.253   4.351   4.489   4.538
 --------------------------------------------------------------
 
          Ground-State Mulliken Net Atomic Charges

     Atom                 Charge (a.u.)    Spin (a.u.)
  --------------------------------------------------------
      1 S                     0.138799      -0.047181
      2 C                     0.046127       0.292673
      3 H                     0.245462      -0.013853
      4 C                    -0.406672      -0.005052
      5 H                     0.171871      -0.000400
      6 C                     0.357101       0.078763
      7 H                     0.187215      -0.005492
      8 C                    -0.243011       0.200797
      9 C                    -0.238351       0.200369
     10 C                     0.358817       0.079012
     11 H                     0.187016      -0.005476
     12 C                    -0.406793      -0.005196
     13 H                     0.171877      -0.000394
     14 C                     0.046982       0.292411
     15 H                     0.245435      -0.013849
     16 S                     0.138126      -0.047133
  --------------------------------------------------------
  Sum of atomic charges =     1.000000
  Sum of spin   charges =     1.000000

 -----------------------------------------------------------------
                    Cartesian Multipole Moments
 -----------------------------------------------------------------
    Charge (ESU x 10^10)
                 4.8032
    Dipole Moment (Debye)
         X      -3.3020      Y       0.1701      Z     -10.1203
       Tot      10.6467
    Quadrupole Moments (Debye-Ang)
        XX     -31.6446     XY      -2.8089     YY     -65.4021
        XZ      23.8314     YZ       2.0380     ZZ     -32.4586
    Octopole Moments (Debye-Ang^2)
       XXX      93.3549    XXY       0.4742    XYY      35.7717
       YYY     -45.7861    XXZ      18.9540    XYZ       4.8057
       YYZ     113.6352    XZZ     -28.6462    YZZ     -27.0698
       ZZZ     277.2480
    Hexadecapole Moments (Debye-Ang^3)
      XXXX   -1290.7080   XXXY      32.6646   XXYY    -303.7414
      XYYY     100.3586   YYYY    -308.3794   XXXZ    -299.4885
      XXYZ     -10.8915   XYYZ    -163.2945   YYYZ      83.1038
      XXZZ    -259.7646   XYZZ      39.9617   YYZZ    -373.4849
      XZZZ    -353.0940   YZZZ     135.2343   ZZZZ   -1895.3894
 -----------------------------------------------------------------
 Calculating analytic gradient of the SCF energy
 Gradient of SCF Energy
            1           2           3           4           5           6
    1  -0.0075644   0.0032937  -0.0009388   0.0009257  -0.0000703  -0.0058516
    2  -0.0048503  -0.0030156   0.0022467  -0.0002294  -0.0008972   0.0099494
    3   0.0029314  -0.0049513   0.0000887   0.0043921  -0.0013368  -0.0021481
            7           8           9          10          11          12
    1   0.0014496   0.0111601  -0.0075208   0.0007980  -0.0012438  -0.0028980
    2   0.0006265  -0.0039489  -0.0018404  -0.0019198  -0.0009503   0.0032645
    3  -0.0001110   0.0026140  -0.0092971   0.0115764  -0.0002581  -0.0007154
           13          14          15          16
    1   0.0011782   0.0017330  -0.0004008   0.0059502
    2  -0.0008416  -0.0047703  -0.0001522   0.0073287
    3  -0.0007176  -0.0043647   0.0023768  -0.0000793
 Max gradient component =       1.158E-02
 RMS gradient           =       4.328E-03
 Gradient time:  CPU 1.90 s  wall 1.90 s
 Geometry Optimization Parameters
   NAtoms,    NIC,     NZ,  NCons,   NDum,   NFix, NCnnct, MaxDiis
       16     111       0       1       0       0       0       0

 Cartesian Hessian Update
 Hessian Updated using BFGS Update


** CONSTRAINED OPTIMIZATION IN DELOCALIZED INTERNAL COORDINATES **
   Searching for a Minimum

   Optimization Cycle:   2

                       Coordinates (Angstroms)
     ATOM                X               Y               Z
      1  S        -0.0377930960    0.1412286752    0.0110513151
      2  C         1.6892820788    0.0595380238   -0.0113069843
      3  H         2.2288129475    0.0825356594    0.9277949196
      4  C         2.2227930675   -0.0200649525   -1.2933441697
      5  H         3.2854054797   -0.0530983342   -1.5037106292
      6  C         1.2294864296   -0.0568381908   -2.2827080457
      7  H         1.4324341570   -0.0986006197   -3.3469779708
      8  C        -0.0629448686    0.0088538514   -1.7478650732
      9  C        -1.3113063355    0.0614286560   -2.4681356774
     10  C        -1.9104918149   -0.9608723082   -3.2143150839
     11  H        -1.4639054332   -1.9394155990   -3.3511844580
     12  C        -3.1638274405   -0.5905078769   -3.7234229264
     13  H        -3.7895934607   -1.2437402514   -4.3203750211
     14  C        -3.5104443381    0.7115204639   -3.3785384586
     15  H        -4.4084088674    1.2506152062   -3.6554683724
     16  S        -2.3346391252    1.4958088970   -2.3824548942
   Point Group: c1    Number of degrees of freedom:    42


   Energy is  -1104.550187870

              Constraints and their Current Values
                                        Value     Constraint
   Dihedral:        6   8   9  10       70.000       70.000
 Hessian Updated using BFGS Update

 40 Hessian modes will be used to form the next step
  Hessian Eigenvalues:
     0.030617    0.045000    0.045000    0.045000    0.045000    0.045002
     0.045002    0.045004    0.045011    0.045012    0.045862    0.159843
     0.159947    0.159966    0.159992    0.160000    0.160509    0.221282
     0.221858    0.237837    0.247030    0.250000    0.282948    0.294453
     0.298902    0.312567    0.313839    0.354717    0.354838    0.355111
     0.355130    0.358221    0.358326    0.376650    0.404881    0.425161
     0.458823    0.463583    0.497933    0.523892

 Minimum Search - Taking Simple RFO Step
 Searching for Lamda that Minimizes Along All modes
 Value Taken    Lamda =  -0.00470613
 Calculated Step too Large.  Step scaled by  0.881626
 Step Taken.  Stepsize is  0.300000

                             Maximum     Tolerance    Cnvgd?
         Gradient           0.008518      0.000300      NO
         Displacement       0.197850      0.001200      NO
         Energy change     -0.007222      0.000001      NO


 New Cartesian Coordinates Obtained by Inverse Iteration

 Displacement from previous Coordinates is:  0.455929
 ----------------------------------------------------------------
             Standard Nuclear Orientation (Angstroms)
    I     Atom           X                Y                Z
 ----------------------------------------------------------------
    1      S      -0.0340185000     0.2222530533    -0.0022854590
    2      C       1.6834640863     0.1051904108    -0.0057943924
    3      H       2.2233111415     0.1433589770     0.9338204741
    4      C       2.2243045353    -0.0328941634    -1.2873006771
    5      H       3.2889953003    -0.0776510320    -1.4822417170
    6      C       1.2400700045    -0.1139507928    -2.2743619036
    7      H       1.4412495025    -0.2008131645    -3.3356518482
    8      C      -0.0666703530    -0.0227653320    -1.7516820318
    9      C      -1.2920178137     0.0695106931    -2.4933620147
   10      C      -1.8963159211    -0.9421985315    -3.2683493165
   11      H      -1.4293288531    -1.9045888792    -3.4419640084
   12      C      -3.1623598140    -0.5825324814    -3.7350072029
   13      H      -3.7924532171    -1.2207917990    -4.3427877696
   14      C      -3.5304078268     0.7056217439    -3.3366560996
   15      H      -4.4359365011     1.2405037396    -3.6008522463
   16      S      -2.3670263906     1.4601388582    -2.3164853171
 ----------------------------------------------------------------
 Nuclear Repulsion Energy =   630.6425419697 hartrees
 There are       43 alpha and       42 beta electrons
 Applying Cartesian multipole field
    Component          Value
    ---------          -----
     (2,0,0)        1.00000E-11
     (0,2,0)        2.00000E-11
     (0,0,2)       -3.00000E-11
 Nucleus-field energy     =    -0.0000000320 hartrees
 Requested basis set is 6-31++G(d,p)
 There are 76 shells and 234 basis functions
 A cutoff of  1.0D-12 yielded   2529 shell pairs
 There are     24933 function pairs

 Q-Chem warning in module /project/projectdirs/jcesr/qchem/qc44/cnl_qc441/compile/cori/qc_src/libqints/qchem/aobasis.C, line 68:

 Using reconstructed effective core potential

 Smallest overlap matrix eigenvalue = 1.51E-06
 Guess MOs from SCF MO coefficient file
 Reading MOs from coefficient file
 Reading MOs from coefficient file
 An unrestricted hybrid HF-DFT SCF calculation will be
 performed using Pulay DIIS extrapolation
 Exchange:     0.2000 Hartree-Fock + 0.0800 Slater + 0.7200 B88
 Correlation:  0.1900 VWN1RPA + 0.8100 LYP
 Using SG-1 standard quadrature grid
 SCF converges when DIIS error is below 1.0E-08
 Geometry optimization detected.  Setting ReadMinima to 0
 Setting SaveMinima to 0
 ---------------------------------------
  Cycle       Energy         DIIS Error
 ---------------------------------------
    1   -1104.5062377319      2.29E-03
    2   -1104.5517187016      4.09E-04
    3   -1104.5490750647      7.13E-04
    4   -1104.5532016908      1.37E-04
    5   -1104.5533383714      4.78E-05
    6   -1104.5533554576      1.49E-05
    7   -1104.5533575873      5.98E-06
    8   -1104.5533580678      2.08E-06
    9   -1104.5533582147      7.44E-07
   10   -1104.5533583083      4.70E-07
   11   -1104.5533583382      3.69E-07
   12   -1104.5533583540      1.44E-07
   13   -1104.5533583570      4.70E-08
   14   -1104.5533583574      2.39E-08
   15   -1104.5533583572      6.61E-09 Convergence criterion met
 ---------------------------------------
 <S^2> = 0.7628
 SCF time:  CPU 10.35 s  wall 9.75 s
 SCF   energy in the final basis set = -1104.5533583572
 Total energy in the final basis set = -1104.5533583572
 
 --------------------------------------------------------------
 
                    Orbital Energies (a.u.)
 --------------------------------------------------------------
 
 Alpha MOs
 -- Occupied --
-89.098 -89.098 -10.432 -10.431 -10.417 -10.417 -10.390 -10.390
-10.379 -10.379  -8.157  -8.157  -6.121  -6.121  -6.117  -6.117
 -6.114  -6.114  -1.083  -1.059  -0.954  -0.928  -0.922  -0.880
 -0.784  -0.748  -0.735  -0.711  -0.697  -0.648  -0.593  -0.592
 -0.586  -0.579  -0.577  -0.555  -0.549  -0.533  -0.526  -0.450
 -0.439  -0.433  -0.407
 -- Virtual --
 -0.232  -0.208  -0.159  -0.144  -0.133  -0.132  -0.125  -0.106
 -0.095  -0.093  -0.093  -0.085  -0.080  -0.077  -0.065  -0.059
 -0.046  -0.043  -0.034  -0.029  -0.024  -0.018  -0.016  -0.003
 -0.000   0.003   0.006   0.006   0.013   0.015   0.022   0.024
  0.027   0.030   0.032   0.035   0.039   0.049   0.057   0.057
  0.061   0.062   0.068   0.079   0.084   0.094   0.094   0.107
  0.111   0.117   0.119   0.131   0.142   0.145   0.146   0.160
  0.173   0.179   0.182   0.195   0.217   0.223   0.231   0.250
  0.275   0.296   0.314   0.339   0.358   0.362   0.401   0.405
  0.412   0.435   0.457   0.458   0.487   0.492   0.500   0.501
  0.537   0.537   0.558   0.563   0.579   0.585   0.592   0.609
  0.611   0.632   0.632   0.655   0.671   0.726   0.730   0.768
  0.783   0.787   0.790   0.811   0.816   0.823   0.835   0.842
  0.851   0.866   0.878   0.888   0.908   0.925   0.933   0.947
  0.972   1.017   1.037   1.049   1.081   1.117   1.154   1.166
  1.169   1.180   1.188   1.204   1.244   1.297   1.303   1.358
  1.403   1.506   1.510   1.569   1.629   1.678   1.710   1.733
  1.744   1.750   1.773   1.775   1.840   1.847   1.878   1.901
  1.945   1.975   1.993   2.023   2.033   2.068   2.078   2.128
  2.198   2.207   2.246   2.267   2.291   2.295   2.316   2.337
  2.344   2.346   2.403   2.409   2.431   2.464   2.524   2.530
  2.588   2.622   2.691   2.696   2.747   2.978   3.004   3.106
  3.109   3.227   3.245   3.548   3.570   3.774   3.813   4.087
  4.122   4.136   4.151   4.246   4.342   4.485   4.529
 
 Beta MOs
 -- Occupied --
-89.098 -89.098 -10.429 -10.429 -10.413 -10.413 -10.389 -10.389
-10.379 -10.379  -8.157  -8.157  -6.121  -6.121  -6.117  -6.117
 -6.114  -6.114  -1.077  -1.053  -0.946  -0.926  -0.920  -0.869
 -0.779  -0.744  -0.729  -0.708  -0.696  -0.645  -0.589  -0.585
 -0.583  -0.575  -0.575  -0.542  -0.540  -0.532  -0.525  -0.437
 -0.433  -0.420
 -- Virtual --
 -0.341  -0.214  -0.192  -0.154  -0.141  -0.125  -0.123  -0.122
 -0.106  -0.094  -0.092  -0.091  -0.084  -0.078  -0.075  -0.064
 -0.058  -0.045  -0.041  -0.033  -0.028  -0.023  -0.017  -0.015
 -0.003   0.000   0.004   0.007   0.008   0.014   0.018   0.023
  0.025   0.028   0.032   0.033   0.035   0.040   0.050   0.059
  0.059   0.062   0.063   0.069   0.080   0.085   0.095   0.095
  0.108   0.112   0.119   0.120   0.132   0.143   0.147   0.147
  0.161   0.176   0.181   0.183   0.196   0.219   0.225   0.233
  0.252   0.277   0.298   0.316   0.341   0.358   0.363   0.404
  0.407   0.414   0.436   0.457   0.460   0.496   0.499   0.505
  0.509   0.539   0.540   0.560   0.564   0.582   0.592   0.597
  0.612   0.613   0.634   0.638   0.661   0.675   0.728   0.732
  0.773   0.787   0.788   0.794   0.813   0.817   0.824   0.836
  0.845   0.854   0.867   0.880   0.889   0.910   0.926   0.935
  0.948   0.976   1.021   1.043   1.055   1.084   1.121   1.158
  1.173   1.176   1.183   1.192   1.209   1.251   1.304   1.307
  1.363   1.412   1.518   1.524   1.578   1.633   1.684   1.713
  1.739   1.747   1.753   1.777   1.780   1.844   1.853   1.882
  1.908   1.953   1.984   1.999   2.036   2.044   2.074   2.083
  2.133   2.202   2.210   2.252   2.273   2.294   2.298   2.320
  2.342   2.347   2.352   2.407   2.414   2.434   2.469   2.528
  2.534   2.593   2.625   2.694   2.698   2.750   2.980   3.006
  3.107   3.109   3.229   3.247   3.550   3.572   3.774   3.813
  4.094   4.130   4.139   4.154   4.253   4.349   4.489   4.533
 --------------------------------------------------------------
 
          Ground-State Mulliken Net Atomic Charges

     Atom                 Charge (a.u.)    Spin (a.u.)
  --------------------------------------------------------
      1 S                     0.123602      -0.048378
      2 C                     0.040416       0.302987
      3 H                     0.248233      -0.014778
      4 C                    -0.390421      -0.014596
      5 H                     0.171726       0.000458
      6 C                     0.293160       0.097002
      7 H                     0.188533      -0.006567
      8 C                    -0.177587       0.184057
      9 C                    -0.173096       0.183822
     10 C                     0.294058       0.097273
     11 H                     0.188302      -0.006586
     12 C                    -0.390961      -0.014849
     13 H                     0.171730       0.000473
     14 C                     0.041278       0.302924
     15 H                     0.248156      -0.014787
     16 S                     0.122871      -0.048456
  --------------------------------------------------------
  Sum of atomic charges =     1.000000
  Sum of spin   charges =     1.000000

 -----------------------------------------------------------------
                    Cartesian Multipole Moments
 -----------------------------------------------------------------
    Charge (ESU x 10^10)
                 4.8032
    Dipole Moment (Debye)
         X      -3.3288      Y       0.2117      Z     -10.0709
       Tot      10.6089
    Quadrupole Moments (Debye-Ang)
        XX     -31.3011     XY      -3.0199     YY     -65.6597
        XZ      23.7990     YZ       2.6610     ZZ     -32.6098
    Octopole Moments (Debye-Ang^2)
       XXX      91.7034    XXY       0.8441    XYY      36.8314
       YYY     -47.0613    XXZ      18.6961    XYZ       5.1708
       YYZ     114.2159    XZZ     -27.7065    YZZ     -29.7733
       ZZZ     276.0356
    Hexadecapole Moments (Debye-Ang^3)
      XXXX   -1290.4808   XXXY      29.0664   XXYY    -306.2213
      XYYY     101.3966   YYYY    -304.0558   XXXZ    -292.8197
      XXYZ     -13.3609   XYYZ    -165.7653   YYYZ      73.1019
      XXZZ    -262.9368   XYZZ      41.8171   YYZZ    -372.1955
      XZZZ    -353.3067   YZZZ     135.4511   ZZZZ   -1880.5661
 -----------------------------------------------------------------
 Calculating analytic gradient of the SCF energy
 Gradient of SCF Energy
            1           2           3           4           5           6
    1  -0.0032596  -0.0006722  -0.0001515   0.0004275  -0.0001767   0.0013808
    2  -0.0014526  -0.0030987   0.0011291   0.0007646  -0.0004097   0.0098967
    3   0.0025945   0.0007746   0.0005301  -0.0024594  -0.0005626  -0.0015933
            7           8           9          10          11          12
    1   0.0006684   0.0026964   0.0008156  -0.0046059  -0.0008813   0.0007020
    2   0.0007316  -0.0109364   0.0052223  -0.0047515  -0.0003568  -0.0025400
    3   0.0001844   0.0039947  -0.0107015   0.0076739   0.0002530   0.0003734
           13          14          15          16
    1   0.0006254   0.0014879  -0.0006882   0.0016313
    2  -0.0002997   0.0018297   0.0001835   0.0040877
    3  -0.0002699  -0.0022865   0.0009979   0.0004966
 Max gradient component =       1.094E-02
 RMS gradient           =       3.449E-03
 Gradient time:  CPU 1.93 s  wall 1.91 s
 Geometry Optimization Parameters
   NAtoms,    NIC,     NZ,  NCons,   NDum,   NFix, NCnnct, MaxDiis
       16     111       0       1       0       0       0       0

 Cartesian Hessian Update
 Hessian Updated using BFGS Update


** CONSTRAINED OPTIMIZATION IN DELOCALIZED INTERNAL COORDINATES **
   Searching for a Minimum

   Optimization Cycle:   3

                       Coordinates (Angstroms)
     ATOM                X               Y               Z
      1  S        -0.0340185000    0.2222530533   -0.0022854590
      2  C         1.6834640863    0.1051904108   -0.0057943924
      3  H         2.2233111415    0.1433589770    0.9338204741
      4  C         2.2243045353   -0.0328941634   -1.2873006771
      5  H         3.2889953003   -0.0776510320   -1.4822417170
      6  C         1.2400700045   -0.1139507928   -2.2743619036
      7  H         1.4412495025   -0.2008131645   -3.3356518482
      8  C        -0.0666703530   -0.0227653320   -1.7516820318
      9  C        -1.2920178137    0.0695106931   -2.4933620147
     10  C        -1.8963159211   -0.9421985315   -3.2683493165
     11  H        -1.4293288531   -1.9045888792   -3.4419640084
     12  C        -3.1623598140   -0.5825324814   -3.7350072029
     13  H        -3.7924532171   -1.2207917990   -4.3427877696
     14  C        -3.5304078268    0.7056217439   -3.3366560996
     15  H        -4.4359365011    1.2405037396   -3.6008522463
     16  S        -2.3670263906    1.4601388582   -2.3164853171
   Point Group: c1    Number of degrees of freedom:    42


   Energy is  -1104.553358357

              Constraints and their Current Values
                                        Value     Constraint
   Dihedral:        6   8   9  10       70.000       70.000
 Hessian Updated using BFGS Update

 40 Hessian modes will be used to form the next step
  Hessian Eigenvalues:
     0.016453    0.045000    0.045000    0.045000    0.045002    0.045002
     0.045003    0.045009    0.045012    0.045013    0.049582    0.159668
     0.159947    0.159964    0.159992    0.160000    0.160411    0.221282
     0.221870    0.237837    0.248436    0.250000    0.282753    0.294450
     0.298252    0.312434    0.312570    0.354777    0.354966    0.355129
     0.355197    0.358272    0.358685    0.377015    0.404882    0.423499
     0.459905    0.463584    0.497933    0.547800

 Minimum Search - Taking Simple RFO Step
 Searching for Lamda that Minimizes Along All modes
 Value Taken    Lamda =  -0.00313980
 Calculated Step too Large.  Step scaled by  0.773019
 Step Taken.  Stepsize is  0.300000

                             Maximum     Tolerance    Cnvgd?
         Gradient           0.006774      0.000300      NO
         Displacement       0.238309      0.001200      NO
         Energy change     -0.003170      0.000001      NO


 New Cartesian Coordinates Obtained by Inverse Iteration

 Displacement from previous Coordinates is:  0.531934
 ----------------------------------------------------------------
             Standard Nuclear Orientation (Angstroms)
    I     Atom           X                Y                Z
 ----------------------------------------------------------------
    1      S      -0.0369637912     0.2930016903    -0.0248084164
    2      C       1.6744065822     0.1644273513    -0.0084298032
    3      H       2.2114938265     0.2311691341     0.9307695658
    4      C       2.2221875145    -0.0540859592    -1.2765400127
    5      H       3.2888081908    -0.1137175046    -1.4562977649
    6      C       1.2443445005    -0.1790200681    -2.2610888243
    7      H       1.4461305921    -0.3186798689    -3.3167762291
    8      C      -0.0727514999    -0.0581222727    -1.7560736895
    9      C      -1.2687482694     0.0795176790    -2.5206311640
   10      C      -1.8764899431    -0.9140550074    -3.3258929814
   11      H      -1.3888076252    -1.8570784991    -3.5441045030
   12      C      -3.1570591871    -0.5666117088    -3.7514469926
   13      H      -3.7898997880    -1.1893004523    -4.3723702294
   14      C      -3.5499392114     0.6904786766    -3.2816395540
   15      H      -4.4666283248     1.2176852823    -3.5200116804
   16      S      -2.3852241866     1.4227828275    -2.2556192510
 ----------------------------------------------------------------
 Nuclear Repulsion Energy =   632.0381452802 hartrees
 There are       43 alpha and       42 beta electrons
 Applying Cartesian multipole field
    Component          Value
    ---------          -----
     (2,0,0)        1.00000E-11
     (0,2,0)        2.00000E-11
     (0,0,2)       -3.00000E-11
 Nucleus-field energy     =    -0.0000000317 hartrees
 Requested basis set is 6-31++G(d,p)
 There are 76 shells and 234 basis functions
 A cutoff of  1.0D-12 yielded   2531 shell pairs
 There are     24941 function pairs

 Q-Chem warning in module /project/projectdirs/jcesr/qchem/qc44/cnl_qc441/compile/cori/qc_src/libqints/qchem/aobasis.C, line 68:

 Using reconstructed effective core potential

 Smallest overlap matrix eigenvalue = 2.14E-06
 Guess MOs from SCF MO coefficient file
 Reading MOs from coefficient file
 Reading MOs from coefficient file
 An unrestricted hybrid HF-DFT SCF calculation will be
 performed using Pulay DIIS extrapolation
 Exchange:     0.2000 Hartree-Fock + 0.0800 Slater + 0.7200 B88
 Correlation:  0.1900 VWN1RPA + 0.8100 LYP
 Using SG-1 standard quadrature grid
 SCF converges when DIIS error is below 1.0E-08
 Geometry optimization detected.  Setting ReadMinima to 0
 Setting SaveMinima to 0
 ---------------------------------------
  Cycle       Energy         DIIS Error
 ---------------------------------------
    1   -1104.5231790649      2.22E-03
    2   -1104.5533724088      4.18E-04
    3   -1104.5494160863      8.17E-04
    4   -1104.5549286993      1.30E-04
    5   -1104.5550516643      4.44E-05
    6   -1104.5550664288      1.42E-05
    7   -1104.5550684767      5.71E-06
    8   -1104.5550689374      2.18E-06
    9   -1104.5550690844      8.49E-07
   10   -1104.5550691905      4.36E-07
   11   -1104.5550692261      2.15E-07
   12   -1104.5550692308      1.28E-07
   13   -1104.5550692315      3.92E-08
   14   -1104.5550692326      1.73E-08
   15   -1104.5550692310      4.34E-09 Convergence criterion met
 ---------------------------------------
 <S^2> = 0.7643
 SCF time:  CPU 10.30 s  wall 9.78 s
 SCF   energy in the final basis set = -1104.5550692310
 Total energy in the final basis set = -1104.5550692310
 
 --------------------------------------------------------------
 
                    Orbital Energies (a.u.)
 --------------------------------------------------------------
 
 Alpha MOs
 -- Occupied --
-89.098 -89.098 -10.432 -10.431 -10.417 -10.417 -10.392 -10.391
-10.379 -10.379  -8.157  -8.157  -6.121  -6.121  -6.117  -6.117
 -6.114  -6.114  -1.084  -1.060  -0.956  -0.929  -0.922  -0.880
 -0.785  -0.750  -0.733  -0.711  -0.697  -0.649  -0.594  -0.593
 -0.588  -0.578  -0.578  -0.555  -0.549  -0.533  -0.524  -0.455
 -0.439  -0.434  -0.403
 -- Virtual --
 -0.236  -0.206  -0.159  -0.139  -0.134  -0.132  -0.125  -0.106
 -0.096  -0.095  -0.092  -0.083  -0.080  -0.077  -0.067  -0.058
 -0.047  -0.043  -0.035  -0.029  -0.024  -0.019  -0.016  -0.003
 -0.000   0.005   0.007   0.007   0.014   0.015   0.021   0.025
  0.028   0.029   0.034   0.037   0.039   0.048   0.057   0.057
  0.060   0.063   0.069   0.079   0.086   0.093   0.094   0.107
  0.113   0.119   0.119   0.129   0.143   0.144   0.147   0.160
  0.176   0.179   0.180   0.195   0.218   0.222   0.230   0.250
  0.269   0.293   0.317   0.331   0.353   0.361   0.395   0.408
  0.412   0.440   0.450   0.462   0.486   0.491   0.499   0.500
  0.534   0.542   0.557   0.561   0.578   0.587   0.588   0.604
  0.618   0.628   0.628   0.655   0.669   0.725   0.730   0.773
  0.778   0.782   0.788   0.814   0.816   0.819   0.836   0.841
  0.848   0.875   0.883   0.884   0.908   0.928   0.930   0.951
  0.970   1.014   1.037   1.043   1.079   1.114   1.137   1.160
  1.170   1.176   1.194   1.202   1.240   1.296   1.305   1.358
  1.422   1.494   1.512   1.550   1.635   1.684   1.709   1.734
  1.746   1.753   1.772   1.784   1.837   1.841   1.868   1.904
  1.940   1.972   1.987   2.011   2.042   2.072   2.087   2.123
  2.199   2.207   2.241   2.270   2.292   2.295   2.312   2.337
  2.343   2.346   2.404   2.411   2.431   2.473   2.523   2.532
  2.583   2.617   2.693   2.699   2.744   2.979   3.005   3.106
  3.109   3.227   3.241   3.548   3.568   3.769   3.821   4.088
  4.117   4.139   4.152   4.246   4.340   4.485   4.525
 
 Beta MOs
 -- Occupied --
-89.098 -89.098 -10.429 -10.429 -10.413 -10.413 -10.390 -10.390
-10.379 -10.379  -8.157  -8.157  -6.121  -6.121  -6.117  -6.117
 -6.114  -6.114  -1.078  -1.054  -0.948  -0.927  -0.920  -0.869
 -0.780  -0.746  -0.728  -0.708  -0.696  -0.646  -0.590  -0.585
 -0.585  -0.576  -0.574  -0.542  -0.539  -0.533  -0.523  -0.436
 -0.434  -0.424
 -- Virtual --
 -0.337  -0.216  -0.191  -0.153  -0.136  -0.125  -0.124  -0.123
 -0.105  -0.095  -0.094  -0.090  -0.083  -0.078  -0.075  -0.066
 -0.057  -0.045  -0.041  -0.034  -0.028  -0.024  -0.018  -0.015
 -0.003   0.000   0.006   0.008   0.009   0.015   0.017   0.022
  0.026   0.029   0.030   0.035   0.037   0.041   0.049   0.059
  0.059   0.061   0.065   0.069   0.080   0.087   0.094   0.095
  0.107   0.114   0.120   0.121   0.131   0.145   0.145   0.148
  0.161   0.179   0.181   0.181   0.196   0.219   0.224   0.232
  0.252   0.271   0.295   0.319   0.333   0.354   0.362   0.398
  0.410   0.413   0.441   0.452   0.463   0.494   0.497   0.506
  0.509   0.536   0.544   0.559   0.562   0.582   0.593   0.593
  0.607   0.620   0.630   0.634   0.661   0.673   0.726   0.732
  0.777   0.783   0.784   0.791   0.816   0.818   0.820   0.837
  0.844   0.850   0.877   0.885   0.886   0.910   0.929   0.932
  0.952   0.975   1.017   1.043   1.049   1.082   1.118   1.143
  1.162   1.175   1.182   1.201   1.205   1.247   1.304   1.309
  1.363   1.431   1.505   1.526   1.560   1.639   1.689   1.712
  1.740   1.749   1.756   1.776   1.790   1.841   1.846   1.873
  1.911   1.948   1.981   1.993   2.023   2.052   2.078   2.092
  2.128   2.203   2.210   2.247   2.277   2.294   2.297   2.316
  2.343   2.346   2.351   2.407   2.416   2.433   2.477   2.527
  2.535   2.588   2.621   2.696   2.701   2.747   2.980   3.007
  3.107   3.109   3.228   3.243   3.549   3.570   3.769   3.821
  4.094   4.125   4.142   4.155   4.253   4.347   4.489   4.528
 --------------------------------------------------------------
 
          Ground-State Mulliken Net Atomic Charges

     Atom                 Charge (a.u.)    Spin (a.u.)
  --------------------------------------------------------
      1 S                     0.111165      -0.051929
      2 C                     0.022031       0.312087
      3 H                     0.250208      -0.015597
      4 C                    -0.350345      -0.023853
      5 H                     0.171950       0.001212
      6 C                     0.188418       0.118773
      7 H                     0.189496      -0.008132
      8 C                    -0.084981       0.167740
      9 C                    -0.079296       0.167378
     10 C                     0.188586       0.119003
     11 H                     0.189279      -0.008162
     12 C                    -0.351275      -0.024103
     13 H                     0.171954       0.001233
     14 C                     0.022641       0.311998
     15 H                     0.250093      -0.015598
     16 S                     0.110075      -0.052050
  --------------------------------------------------------
  Sum of atomic charges =     1.000000
  Sum of spin   charges =     1.000000

 -----------------------------------------------------------------
                    Cartesian Multipole Moments
 -----------------------------------------------------------------
    Charge (ESU x 10^10)
                 4.8032
    Dipole Moment (Debye)
         X      -3.3394      Y       0.2280      Z     -10.0504
       Tot      10.5931
    Quadrupole Moments (Debye-Ang)
        XX     -31.0346     XY      -3.1282     YY     -65.9241
        XZ      23.6516     YZ       3.3815     ZZ     -32.7363
    Octopole Moments (Debye-Ang^2)
       XXX      89.7949    XXY       0.9668    XYY      38.2843
       YYY     -47.8438    XXZ      19.1241    XYZ       5.4240
       YYZ     115.0829    XZZ     -26.5545    YZZ     -32.7455
       ZZZ     274.9120
    Hexadecapole Moments (Debye-Ang^3)
      XXXX   -1281.7130   XXXY      26.1334   XXYY    -308.3402
      XYYY     102.0802   YYYY    -299.6518   XXXZ    -286.7488
      XXYZ     -13.9339   XYYZ    -168.8728   YYYZ      62.7686
      XXZZ    -268.2251   XYZZ      44.6358   YYZZ    -371.3244
      XZZZ    -352.8882   YZZZ     137.9732   ZZZZ   -1864.3627
 -----------------------------------------------------------------
 Calculating analytic gradient of the SCF energy
 Gradient of SCF Energy
            1           2           3           4           5           6
    1   0.0000986  -0.0023166   0.0000873  -0.0001271  -0.0000148   0.0037339
    2  -0.0001871  -0.0009514   0.0001154   0.0000589  -0.0000285   0.0108759
    3   0.0009187   0.0021580   0.0001271  -0.0037989   0.0001037   0.0004069
            7           8           9          10          11          12
    1  -0.0000179  -0.0052551   0.0095866  -0.0077632  -0.0003126   0.0020930
    2   0.0006854  -0.0169719   0.0102211  -0.0044529  -0.0001389  -0.0031393
    3   0.0000577   0.0035102  -0.0114827   0.0071543   0.0006058   0.0000874
           13          14          15          16
    1  -0.0000135   0.0009114  -0.0001835  -0.0005064
    2   0.0000659   0.0030909   0.0000164   0.0007401
    3  -0.0000419   0.0004219   0.0000141  -0.0002424
 Max gradient component =       1.697E-02
 RMS gradient           =       4.502E-03
 Gradient time:  CPU 1.90 s  wall 1.92 s
 Geometry Optimization Parameters
   NAtoms,    NIC,     NZ,  NCons,   NDum,   NFix, NCnnct, MaxDiis
       16     111       0       1       0       0       0       0

 Cartesian Hessian Update
 Hessian Updated using BFGS Update


** CONSTRAINED OPTIMIZATION IN DELOCALIZED INTERNAL COORDINATES **
   Searching for a Minimum

   Optimization Cycle:   4

                       Coordinates (Angstroms)
     ATOM                X               Y               Z
      1  S        -0.0369637912    0.2930016903   -0.0248084164
      2  C         1.6744065822    0.1644273513   -0.0084298032
      3  H         2.2114938265    0.2311691341    0.9307695658
      4  C         2.2221875145   -0.0540859592   -1.2765400127
      5  H         3.2888081908   -0.1137175046   -1.4562977649
      6  C         1.2443445005   -0.1790200681   -2.2610888243
      7  H         1.4461305921   -0.3186798689   -3.3167762291
      8  C        -0.0727514999   -0.0581222727   -1.7560736895
      9  C        -1.2687482694    0.0795176790   -2.5206311640
     10  C        -1.8764899431   -0.9140550074   -3.3258929814
     11  H        -1.3888076252   -1.8570784991   -3.5441045030
     12  C        -3.1570591871   -0.5666117088   -3.7514469926
     13  H        -3.7898997880   -1.1893004523   -4.3723702294
     14  C        -3.5499392114    0.6904786766   -3.2816395540
     15  H        -4.4666283248    1.2176852823   -3.5200116804
     16  S        -2.3852241866    1.4227828275   -2.2556192510
   Point Group: c1    Number of degrees of freedom:    42


   Energy is  -1104.555069231

              Constraints and their Current Values
                                        Value     Constraint
   Dihedral:        6   8   9  10       70.000       70.000
 Hessian Updated using BFGS Update

 40 Hessian modes will be used to form the next step
  Hessian Eigenvalues:
     0.014522    0.045000    0.045000    0.045001    0.045002    0.045003
     0.045004    0.045011    0.045013    0.045251    0.049315    0.159911
     0.159947    0.159972    0.159992    0.160000    0.161900    0.221282
     0.221995    0.237839    0.248811    0.250003    0.283949    0.294448
     0.297629    0.312569    0.322688    0.354783    0.355022    0.355129
     0.355246    0.358271    0.358648    0.380396    0.404883    0.422100
     0.459912    0.463584    0.497933    0.534778

 Minimum Search - Taking Simple RFO Step
 Searching for Lamda that Minimizes Along All modes
 Value Taken    Lamda =  -0.00083623
 Step Taken.  Stepsize is  0.221106

                             Maximum     Tolerance    Cnvgd?
         Gradient           0.003733      0.000300      NO
         Displacement       0.190956      0.001200      NO
         Energy change     -0.001711      0.000001      NO


 New Cartesian Coordinates Obtained by Inverse Iteration

 Displacement from previous Coordinates is:  0.420984
 ----------------------------------------------------------------
             Standard Nuclear Orientation (Angstroms)
    I     Atom           X                Y                Z
 ----------------------------------------------------------------
    1      S      -0.0399560164     0.3389099784    -0.0410823031
    2      C       1.6709205568     0.2101274610    -0.0129945063
    3      H       2.2054739445     0.3068708042     0.9248634897
    4      C       2.2205016156    -0.0719968153    -1.2652983816
    5      H       3.2874754666    -0.1436288423    -1.4383774622
    6      C       1.2444265894    -0.2298063990    -2.2474703566
    7      H       1.4488463912    -0.4130535520    -3.2962864601
    8      C      -0.0775284606    -0.0854590658    -1.7559707531
    9      C      -1.2531154597     0.0887695373    -2.5407852497
   10      C      -1.8609925673    -0.8886629655    -3.3688979030
   11      H      -1.3591249071    -1.8147247080    -3.6258200069
   12      C      -3.1537296044    -0.5512072203    -3.7658927530
   13      H      -3.7848671836    -1.1645629928    -4.3976961437
   14      C      -3.5654652494     0.6754180018    -3.2412843418
   15      H      -4.4930527709     1.1944356425    -3.4531944508
   16      S      -2.3949529646     1.3969624359    -2.2147739477
 ----------------------------------------------------------------
 Nuclear Repulsion Energy =   632.8620375621 hartrees
 There are       43 alpha and       42 beta electrons
 Applying Cartesian multipole field
    Component          Value
    ---------          -----
     (2,0,0)        1.00000E-11
     (0,2,0)        2.00000E-11
     (0,0,2)       -3.00000E-11
 Nucleus-field energy     =    -0.0000000316 hartrees
 Requested basis set is 6-31++G(d,p)
 There are 76 shells and 234 basis functions
 A cutoff of  1.0D-12 yielded   2529 shell pairs
 There are     24905 function pairs

 Q-Chem warning in module /project/projectdirs/jcesr/qchem/qc44/cnl_qc441/compile/cori/qc_src/libqints/qchem/aobasis.C, line 68:

 Using reconstructed effective core potential

 Smallest overlap matrix eigenvalue = 2.75E-06
 Guess MOs from SCF MO coefficient file
 Reading MOs from coefficient file
 Reading MOs from coefficient file
 An unrestricted hybrid HF-DFT SCF calculation will be
 performed using Pulay DIIS extrapolation
 Exchange:     0.2000 Hartree-Fock + 0.0800 Slater + 0.7200 B88
 Correlation:  0.1900 VWN1RPA + 0.8100 LYP
 Using SG-1 standard quadrature grid
 SCF converges when DIIS error is below 1.0E-08
 Geometry optimization detected.  Setting ReadMinima to 0
 Setting SaveMinima to 0
 ---------------------------------------
  Cycle       Energy         DIIS Error
 ---------------------------------------
    1   -1104.5351851176      1.54E-03
    2   -1104.5549107955      2.48E-04
    3   -1104.5535184721      4.86E-04
    4   -1104.5554807116      7.87E-05
    5   -1104.5555261306      2.76E-05
    6   -1104.5555318255      1.07E-05
    7   -1104.5555329893      3.61E-06
    8   -1104.5555331924      1.57E-06
    9   -1104.5555332599      6.56E-07
   10   -1104.5555333151      3.18E-07
   11   -1104.5555333301      1.41E-07
   12   -1104.5555333331      9.15E-08
   13   -1104.5555333327      1.84E-08
   14   -1104.5555333333      1.04E-08
   15   -1104.5555333337      4.48E-09 Convergence criterion met
 ---------------------------------------
 <S^2> = 0.7652
 SCF time:  CPU 10.05 s  wall 11.28 s
 SCF   energy in the final basis set = -1104.5555333337
 Total energy in the final basis set = -1104.5555333337
 
 --------------------------------------------------------------
 
                    Orbital Energies (a.u.)
 --------------------------------------------------------------
 
 Alpha MOs
 -- Occupied --
-89.098 -89.097 -10.432 -10.432 -10.417 -10.417 -10.393 -10.393
-10.378 -10.378  -8.157  -8.157  -6.121  -6.121  -6.117  -6.117
 -6.114  -6.113  -1.085  -1.060  -0.957  -0.930  -0.921  -0.880
 -0.786  -0.751  -0.732  -0.711  -0.698  -0.650  -0.595  -0.593
 -0.590  -0.579  -0.578  -0.554  -0.548  -0.534  -0.523  -0.458
 -0.439  -0.434  -0.402
 -- Virtual --
 -0.238  -0.204  -0.159  -0.136  -0.135  -0.132  -0.125  -0.106
 -0.097  -0.096  -0.091  -0.083  -0.080  -0.076  -0.068  -0.058
 -0.048  -0.042  -0.036  -0.027  -0.025  -0.020  -0.016  -0.003
 -0.000   0.007   0.008   0.008   0.013   0.015   0.019   0.025
  0.027   0.030   0.035   0.039   0.040   0.046   0.056   0.058
  0.059   0.066   0.069   0.080   0.087   0.092   0.094   0.107
  0.115   0.118   0.119   0.130   0.142   0.145   0.147   0.160
  0.176   0.177   0.180   0.195   0.218   0.221   0.230   0.248
  0.265   0.292   0.321   0.324   0.351   0.361   0.392   0.405
  0.414   0.440   0.449   0.465   0.485   0.487   0.499   0.499
  0.532   0.539   0.556   0.561   0.576   0.584   0.592   0.599
  0.622   0.626   0.626   0.656   0.668   0.724   0.728   0.768
  0.775   0.781   0.787   0.815   0.816   0.820   0.834   0.842
  0.847   0.881   0.883   0.885   0.908   0.930   0.930   0.952
  0.970   1.012   1.037   1.041   1.076   1.109   1.112   1.155
  1.169   1.183   1.191   1.207   1.241   1.298   1.303   1.356
  1.435   1.482   1.513   1.541   1.635   1.688   1.710   1.731
  1.745   1.753   1.769   1.793   1.835   1.836   1.864   1.905
  1.935   1.970   1.982   2.001   2.048   2.074   2.092   2.119
  2.199   2.207   2.239   2.271   2.291   2.296   2.310   2.338
  2.341   2.347   2.404   2.412   2.431   2.477   2.522   2.533
  2.577   2.613   2.695   2.700   2.741   2.979   3.005   3.106
  3.108   3.227   3.239   3.546   3.566   3.766   3.825   4.088
  4.115   4.141   4.153   4.247   4.339   4.485   4.520
 
 Beta MOs
 -- Occupied --
-89.098 -89.098 -10.430 -10.429 -10.413 -10.413 -10.391 -10.391
-10.379 -10.379  -8.157  -8.157  -6.121  -6.121  -6.117  -6.117
 -6.114  -6.114  -1.079  -1.054  -0.949  -0.927  -0.919  -0.870
 -0.781  -0.747  -0.727  -0.708  -0.696  -0.647  -0.591  -0.586
 -0.585  -0.577  -0.574  -0.542  -0.539  -0.533  -0.521  -0.436
 -0.435  -0.427
 -- Virtual --
 -0.336  -0.218  -0.190  -0.153  -0.133  -0.125  -0.125  -0.122
 -0.105  -0.096  -0.095  -0.089  -0.082  -0.078  -0.075  -0.068
 -0.056  -0.046  -0.041  -0.035  -0.027  -0.024  -0.019  -0.015
 -0.003   0.001   0.007   0.008   0.010   0.015   0.016   0.021
  0.026   0.028   0.031   0.036   0.039   0.041   0.048   0.058
  0.059   0.060   0.068   0.070   0.081   0.088   0.093   0.095
  0.108   0.115   0.119   0.121   0.132   0.144   0.146   0.148
  0.161   0.178   0.180   0.182   0.196   0.220   0.223   0.232
  0.250   0.267   0.293   0.322   0.326   0.352   0.362   0.395
  0.407   0.415   0.441   0.451   0.466   0.490   0.495   0.506
  0.509   0.534   0.543   0.559   0.562   0.580   0.590   0.595
  0.601   0.627   0.628   0.631   0.663   0.672   0.725   0.730
  0.773   0.778   0.784   0.790   0.817   0.818   0.821   0.836
  0.845   0.849   0.883   0.884   0.888   0.910   0.930   0.931
  0.953   0.974   1.015   1.043   1.046   1.079   1.114   1.116
  1.160   1.174   1.188   1.199   1.210   1.247   1.305   1.307
  1.362   1.445   1.491   1.526   1.553   1.639   1.693   1.713
  1.737   1.749   1.756   1.775   1.799   1.840   1.840   1.869
  1.911   1.943   1.978   1.989   2.013   2.059   2.081   2.097
  2.124   2.203   2.210   2.244   2.278   2.294   2.297   2.314
  2.343   2.344   2.352   2.408   2.417   2.433   2.482   2.526
  2.536   2.582   2.617   2.698   2.702   2.743   2.980   3.006
  3.106   3.108   3.228   3.241   3.548   3.567   3.766   3.826
  4.094   4.122   4.144   4.156   4.254   4.346   4.489   4.524
 --------------------------------------------------------------
 
          Ground-State Mulliken Net Atomic Charges

     Atom                 Charge (a.u.)    Spin (a.u.)
  --------------------------------------------------------
      1 S                     0.110450      -0.055993
      2 C                    -0.002898       0.316878
      3 H                     0.251071      -0.015943
      4 C                    -0.309576      -0.030868
      5 H                     0.172261       0.001669
      6 C                     0.091282       0.136335
      7 H                     0.190109      -0.009291
      8 C                    -0.004426       0.157582
      9 C                     0.000785       0.156879
     10 C                     0.092011       0.136672
     11 H                     0.189997      -0.009297
     12 C                    -0.310739      -0.031101
     13 H                     0.172281       0.001685
     14 C                    -0.002384       0.316863
     15 H                     0.250939      -0.015944
     16 S                     0.108838      -0.056127
  --------------------------------------------------------
  Sum of atomic charges =     1.000000
  Sum of spin   charges =     1.000000

 -----------------------------------------------------------------
                    Cartesian Multipole Moments
 -----------------------------------------------------------------
    Charge (ESU x 10^10)
                 4.8032
    Dipole Moment (Debye)
         X      -3.3379      Y       0.2256      Z     -10.0545
       Tot      10.5965
    Quadrupole Moments (Debye-Ang)
        XX     -30.8432     XY      -3.1599     YY     -66.1156
        XZ      23.5166     YZ       3.9604     ZZ     -32.7706
    Octopole Moments (Debye-Ang^2)
       XXX      88.3175    XXY       0.9570    XYY      39.5132
       YYY     -48.2464    XXZ      19.5762    XYZ       5.5585
       YYZ     115.7680    XZZ     -25.7287    YZZ     -35.0787
       ZZZ     273.7576
    Hexadecapole Moments (Debye-Ang^3)
      XXXX   -1274.0652   XXXY      24.6238   XXYY    -310.1421
      XYYY     102.8082   YYYY    -297.0749   XXXZ    -283.4070
      XXYZ     -13.4544   XYYZ    -171.6639   YYYZ      55.7280
      XXZZ    -273.0020   XYZZ      47.1745   YYZZ    -371.0213
      XZZZ    -352.6685   YZZZ     141.5125   ZZZZ   -1851.7960
 -----------------------------------------------------------------
 Calculating analytic gradient of the SCF energy
 Gradient of SCF Energy
            1           2           3           4           5           6
    1   0.0011434  -0.0015888   0.0001723   0.0000300   0.0000259   0.0031562
    2   0.0002031   0.0006748  -0.0003966  -0.0004276   0.0001851   0.0117916
    3  -0.0001719   0.0012602  -0.0000278  -0.0018097   0.0002991   0.0010623
            7           8           9          10          11          12
    1  -0.0002756  -0.0081443   0.0133086  -0.0081706   0.0000468   0.0011129
    2   0.0004710  -0.0213327   0.0132853  -0.0038952  -0.0001045  -0.0013967
    3  -0.0000946   0.0041797  -0.0136379   0.0081687   0.0005571  -0.0003668
           13          14          15          16
    1  -0.0002297   0.0001751   0.0000727  -0.0008351
    2   0.0001491   0.0015143  -0.0000179  -0.0007031
    3   0.0001086   0.0013959  -0.0004615  -0.0004612
 Max gradient component =       2.133E-02
 RMS gradient           =       5.395E-03
 Gradient time:  CPU 1.97 s  wall 1.91 s
 Geometry Optimization Parameters
   NAtoms,    NIC,     NZ,  NCons,   NDum,   NFix, NCnnct, MaxDiis
       16     111       0       1       0       0       0       0

 Cartesian Hessian Update
 Hessian Updated using BFGS Update


** CONSTRAINED OPTIMIZATION IN DELOCALIZED INTERNAL COORDINATES **
   Searching for a Minimum

   Optimization Cycle:   5

                       Coordinates (Angstroms)
     ATOM                X               Y               Z
      1  S        -0.0399560164    0.3389099784   -0.0410823031
      2  C         1.6709205568    0.2101274610   -0.0129945063
      3  H         2.2054739445    0.3068708042    0.9248634897
      4  C         2.2205016156   -0.0719968153   -1.2652983816
      5  H         3.2874754666   -0.1436288423   -1.4383774622
      6  C         1.2444265894   -0.2298063990   -2.2474703566
      7  H         1.4488463912   -0.4130535520   -3.2962864601
      8  C        -0.0775284606   -0.0854590658   -1.7559707531
      9  C        -1.2531154597    0.0887695373   -2.5407852497
     10  C        -1.8609925673   -0.8886629655   -3.3688979030
     11  H        -1.3591249071   -1.8147247080   -3.6258200069
     12  C        -3.1537296044   -0.5512072203   -3.7658927530
     13  H        -3.7848671836   -1.1645629928   -4.3976961437
     14  C        -3.5654652494    0.6754180018   -3.2412843418
     15  H        -4.4930527709    1.1944356425   -3.4531944508
     16  S        -2.3949529646    1.3969624359   -2.2147739477
   Point Group: c1    Number of degrees of freedom:    42


   Energy is  -1104.555533334

              Constraints and their Current Values
                                        Value     Constraint
   Dihedral:        6   8   9  10       70.000       70.000
 Hessian Updated using BFGS Update

 41 Hessian modes will be used to form the next step
  Hessian Eigenvalues:
     0.014487    0.045000    0.045000    0.045000    0.045001    0.045002
     0.045003    0.045004    0.045012    0.045018    0.045452    0.048312
     0.159941    0.159949    0.159991    0.159996    0.160000    0.161803
     0.221283    0.222173    0.237840    0.248853    0.250001    0.284757
     0.294443    0.296997    0.312569    0.322130    0.354778    0.354976
     0.355128    0.355196    0.358270    0.358617    0.379609    0.404883
     0.422098    0.460157    0.463584    0.497933    0.515689

 Minimum Search - Taking Simple RFO Step
 Searching for Lamda that Minimizes Along All modes
 Value Taken    Lamda =  -0.00005530
 Step Taken.  Stepsize is  0.034545

                             Maximum     Tolerance    Cnvgd?
         Gradient           0.001880      0.000300      NO
         Displacement       0.029492      0.001200      NO
         Energy change     -0.000464      0.000001      NO


 New Cartesian Coordinates Obtained by Inverse Iteration

 Displacement from previous Coordinates is:  0.067115
 ----------------------------------------------------------------
             Standard Nuclear Orientation (Angstroms)
    I     Atom           X                Y                Z
 ----------------------------------------------------------------
    1      S      -0.0417001389     0.3413375552    -0.0418438463
    2      C       1.6710036667     0.2157671936    -0.0137995023
    3      H       2.2045770049     0.3215289876     0.9236171480
    4      C       2.2198027262    -0.0742214770    -1.2631379949
    5      H       3.2864133711    -0.1478067114    -1.4378698967
    6      C       1.2432906570    -0.2371290184    -2.2451691510
    7      H       1.4497408832    -0.4292275924    -3.2920599050
    8      C      -0.0779568076    -0.0896445929    -1.7550775020
    9      C      -1.2516193112     0.0901741221    -2.5435393908
   10      C      -1.8583376489    -0.8845293592    -3.3742151278
   11      H      -1.3549575035    -1.8073278139    -3.6399985202
   12      C      -3.1533016172    -0.5482472315    -3.7676844219
   13      H      -3.7823568781    -1.1617721422    -4.4014436443
   14      C      -3.5674389903     0.6733543879    -3.2367503252
   15      H      -4.4978990338     1.1903050038    -3.4408381286
   16      S      -2.3944009996     1.3958299886    -2.2111513213
 ----------------------------------------------------------------
 Nuclear Repulsion Energy =   632.9058743867 hartrees
 There are       43 alpha and       42 beta electrons
 Applying Cartesian multipole field
    Component          Value
    ---------          -----
     (2,0,0)        1.00000E-11
     (0,2,0)        2.00000E-11
     (0,0,2)       -3.00000E-11
 Nucleus-field energy     =    -0.0000000315 hartrees
 Requested basis set is 6-31++G(d,p)
 There are 76 shells and 234 basis functions
 A cutoff of  1.0D-12 yielded   2529 shell pairs
 There are     24905 function pairs

 Q-Chem warning in module /project/projectdirs/jcesr/qchem/qc44/cnl_qc441/compile/cori/qc_src/libqints/qchem/aobasis.C, line 68:

 Using reconstructed effective core potential

 Smallest overlap matrix eigenvalue = 2.84E-06
 Guess MOs from SCF MO coefficient file
 Reading MOs from coefficient file
 Reading MOs from coefficient file
 An unrestricted hybrid HF-DFT SCF calculation will be
 performed using Pulay DIIS extrapolation
 Exchange:     0.2000 Hartree-Fock + 0.0800 Slater + 0.7200 B88
 Correlation:  0.1900 VWN1RPA + 0.8100 LYP
[...]
    8   -1104.5555825918      1.48E-08
    9   -1104.5555825927      9.40E-09 Convergence criterion met
 ---------------------------------------
 <S^2> = 0.7654
 SCF time:  CPU 5.91 s  wall 5.71 s
 SCF   energy in the final basis set = -1104.5555825927
 Total energy in the final basis set = -1104.5555825927
 
 --------------------------------------------------------------
 
                    Orbital Energies (a.u.)
 --------------------------------------------------------------
 
 Alpha MOs
 -- Occupied --
-89.097 -89.097 -10.432 -10.432 -10.417 -10.417 -10.393 -10.393
-10.378 -10.378  -8.156  -8.156  -6.121  -6.121  -6.117  -6.117
 -6.113  -6.113  -1.085  -1.060  -0.957  -0.929  -0.921  -0.881
 -0.786  -0.751  -0.732  -0.711  -0.698  -0.650  -0.594  -0.593
 -0.590  -0.579  -0.579  -0.554  -0.548  -0.534  -0.523  -0.458
 -0.439  -0.434  -0.402
 -- Virtual --
 -0.238  -0.203  -0.159  -0.137  -0.135  -0.132  -0.125  -0.106
 -0.097  -0.096  -0.091  -0.083  -0.080  -0.076  -0.069  -0.058
 -0.048  -0.042  -0.036  -0.027  -0.025  -0.020  -0.016  -0.003
  0.000   0.007   0.007   0.008   0.012   0.015   0.019   0.025
  0.026   0.030   0.036   0.039   0.040   0.046   0.056   0.058
  0.059   0.066   0.070   0.080   0.087   0.092   0.094   0.107
  0.115   0.118   0.119   0.131   0.142   0.145   0.147   0.160
  0.176   0.177   0.180   0.195   0.218   0.221   0.230   0.248
  0.264   0.293   0.322   0.323   0.351   0.361   0.392   0.404
  0.414   0.441   0.449   0.465   0.485   0.487   0.499   0.499
  0.532   0.539   0.556   0.561   0.575   0.584   0.592   0.597
  0.622   0.626   0.627   0.657   0.668   0.724   0.729   0.767
  0.776   0.782   0.786   0.815   0.817   0.821   0.835   0.841
  0.847   0.881   0.883   0.886   0.908   0.930   0.930   0.952
  0.970   1.012   1.037   1.040   1.075   1.109   1.109   1.156
  1.169   1.185   1.191   1.206   1.239   1.302   1.302   1.354
  1.435   1.482   1.512   1.539   1.634   1.689   1.711   1.730
  1.744   1.753   1.770   1.794   1.834   1.837   1.863   1.906
  1.935   1.969   1.982   1.998   2.049   2.074   2.094   2.119
  2.198   2.207   2.240   2.270   2.291   2.295   2.310   2.337
  2.341   2.347   2.404   2.412   2.430   2.478   2.522   2.533
  2.577   2.613   2.695   2.700   2.741   2.979   3.004   3.105
  3.107   3.228   3.239   3.546   3.566   3.766   3.826   4.087
  4.115   4.141   4.154   4.247   4.339   4.485   4.520
 
 Beta MOs
 -- Occupied --
-89.098 -89.098 -10.430 -10.430 -10.413 -10.413 -10.391 -10.391
-10.379 -10.379  -8.157  -8.157  -6.121  -6.121  -6.117  -6.117
 -6.114  -6.114  -1.079  -1.054  -0.949  -0.927  -0.919  -0.871
 -0.781  -0.747  -0.727  -0.708  -0.696  -0.647  -0.591  -0.586
 -0.584  -0.577  -0.575  -0.542  -0.539  -0.533  -0.521  -0.436
 -0.435  -0.428
 -- Virtual --
 -0.336  -0.218  -0.190  -0.153  -0.134  -0.125  -0.125  -0.122
 -0.105  -0.096  -0.095  -0.089  -0.082  -0.078  -0.075  -0.068
 -0.056  -0.046  -0.041  -0.035  -0.027  -0.025  -0.019  -0.015
 -0.003   0.001   0.008   0.008   0.010   0.015   0.016   0.020
  0.026   0.028   0.031   0.037   0.039   0.041   0.047   0.058
  0.059   0.060   0.068   0.070   0.081   0.088   0.093   0.095
  0.108   0.115   0.119   0.121   0.133   0.144   0.147   0.148
  0.162   0.177   0.179   0.182   0.196   0.220   0.223   0.232
  0.250   0.266   0.294   0.324   0.325   0.352   0.363   0.395
  0.406   0.415   0.441   0.450   0.466   0.489   0.494   0.506
  0.509   0.535   0.542   0.559   0.561   0.579   0.590   0.595
  0.600   0.627   0.628   0.631   0.663   0.673   0.725   0.731
  0.771   0.778   0.786   0.788   0.817   0.819   0.821   0.837
  0.844   0.849   0.882   0.885   0.888   0.910   0.931   0.932
  0.953   0.975   1.015   1.043   1.046   1.079   1.112   1.113
  1.161   1.173   1.191   1.199   1.208   1.245   1.306   1.309
  1.359   1.445   1.491   1.526   1.551   1.638   1.695   1.714
  1.737   1.748   1.755   1.775   1.800   1.840   1.841   1.869
  1.912   1.944   1.978   1.989   2.010   2.059   2.081   2.099
  2.123   2.203   2.210   2.245   2.277   2.294   2.297   2.314
  2.343   2.344   2.353   2.408   2.417   2.433   2.482   2.526
  2.536   2.582   2.617   2.698   2.702   2.744   2.981   3.006
  3.106   3.107   3.229   3.241   3.548   3.567   3.766   3.826
  4.094   4.122   4.144   4.156   4.254   4.346   4.489   4.524
 --------------------------------------------------------------
 
          Ground-State Mulliken Net Atomic Charges

     Atom                 Charge (a.u.)    Spin (a.u.)
  --------------------------------------------------------
      1 S                     0.111865      -0.057352
      2 C                    -0.006479       0.317324
      3 H                     0.251186      -0.015912
      4 C                    -0.306156      -0.033252
      5 H                     0.172032       0.001740
      6 C                     0.079713       0.140863
      7 H                     0.190217      -0.009443
      8 C                     0.006633       0.156479
      9 C                     0.009730       0.155420
     10 C                     0.081351       0.141222
     11 H                     0.190123      -0.009425
     12 C                    -0.307533      -0.033453
     13 H                     0.172052       0.001746
     14 C                    -0.005536       0.317408
     15 H                     0.251089      -0.015915
     16 S                     0.109713      -0.057452
  --------------------------------------------------------
  Sum of atomic charges =     1.000000
  Sum of spin   charges =     1.000000

 -----------------------------------------------------------------
                    Cartesian Multipole Moments
 -----------------------------------------------------------------
    Charge (ESU x 10^10)
                 4.8032
    Dipole Moment (Debye)
         X      -3.3322      Y       0.2175      Z     -10.0656
       Tot      10.6050
    Quadrupole Moments (Debye-Ang)
        XX     -30.8549     XY      -3.1550     YY     -66.1365
        XZ      23.4383     YZ       4.1152     ZZ     -32.7339
    Octopole Moments (Debye-Ang^2)
       XXX      88.1297    XXY       0.9918    XYY      39.7408
       YYY     -48.1968    XXZ      19.8056    XYZ       5.5925
       YYZ     115.8172    XZZ     -25.3711    YZZ     -35.7082
       ZZZ     273.3839
    Hexadecapole Moments (Debye-Ang^3)
      XXXX   -1271.8323   XXXY      24.6898   XXYY    -310.1886
      XYYY     103.1551   YYYY    -297.0769   XXXZ    -284.1939
      XXYZ     -12.8720   XYYZ    -172.1779   YYYZ      55.0950
      XXZZ    -274.7946   XYZZ      48.0480   YYZZ    -370.9490
      XZZZ    -353.6530   YZZZ     144.0865   ZZZZ   -1849.5753
 -----------------------------------------------------------------
 Calculating analytic gradient of the SCF energy
 Gradient of SCF Energy
            1           2           3           4           5           6
    1  -0.0000531   0.0000500  -0.0000153   0.0000089  -0.0000021   0.0014584
    2   0.0000169   0.0000619  -0.0000056   0.0000043   0.0000333   0.0123717
    3   0.0000319  -0.0000667   0.0000121   0.0001075  -0.0000065   0.0005115
            7           8           9          10          11          12
    1   0.0000193  -0.0065270   0.0120629  -0.0069461  -0.0000084  -0.0000506
    2   0.0000374  -0.0219153   0.0132386  -0.0037548  -0.0000251   0.0000636
    3   0.0000015   0.0048077  -0.0150337   0.0096438   0.0000173  -0.0000192
           13          14          15          16
    1   0.0000156  -0.0000277   0.0000093   0.0000059
    2  -0.0000361  -0.0001153  -0.0000078   0.0000321
    3   0.0000024  -0.0000016  -0.0000325   0.0000245
 Max gradient component =       2.192E-02
 RMS gradient           =       5.408E-03
 Gradient time:  CPU 1.89 s  wall 2.41 s
 Geometry Optimization Parameters
   NAtoms,    NIC,     NZ,  NCons,   NDum,   NFix, NCnnct, MaxDiis
       16     111       0       1       0       0       0       0

 Cartesian Hessian Update
 Hessian Updated using BFGS Update


** CONSTRAINED OPTIMIZATION IN DELOCALIZED INTERNAL COORDINATES **
   Searching for a Minimum

   Optimization Cycle:   8

                       Coordinates (Angstroms)
     ATOM                X               Y               Z
      1  S        -0.0429301520    0.3399918039   -0.0412586298
      2  C         1.6713987809    0.2159330955   -0.0139245405
      3  H         2.2041331598    0.3283938615    0.9231772425
      4  C         2.2193698297   -0.0742875832   -1.2625479231
      5  H         3.2855848089   -0.1492191693   -1.4392777163
      6  C         1.2421587962   -0.2384319415   -2.2445514453
      7  H         1.4500570805   -0.4362926152   -3.2900870409
      8  C        -0.0782590407   -0.0905836633   -1.7541530213
      9  C        -1.2517553734    0.0905485875   -2.5435128487
     10  C        -1.8575237446   -0.8835189316   -3.3745027570
     11  H        -1.3533453067   -1.8041616773   -3.6461880170
     12  C        -3.1531955326   -0.5473284734   -3.7678642560
     13  H        -3.7802881690   -1.1615065336   -4.4029810734
     14  C        -3.5674470653    0.6732646629   -3.2370071603
     15  H        -4.4998921731    1.1888576710   -3.4352835404
     16  S        -2.3932065186    1.3967322062   -2.2109988023
   Point Group: c1    Number of degrees of freedom:    42


   Energy is  -1104.555582593

              Constraints and their Current Values
                                        Value     Constraint
   Dihedral:        6   8   9  10       70.000       70.000
 Hessian Updated using BFGS Update

 40 Hessian modes will be used to form the next step
  Hessian Eigenvalues:
     0.015552    0.020324    0.044499    0.045000    0.045000    0.045002
     0.045004    0.045011    0.045012    0.045034    0.047856    0.153691
     0.159306    0.159948    0.159991    0.160000    0.160021    0.221291
     0.221821    0.237875    0.247432    0.249995    0.280719    0.292513
     0.294457    0.295258    0.312570    0.354772    0.354927    0.355127
     0.355135    0.358271    0.358642    0.381660    0.404921    0.421911
     0.451354    0.463575    0.495376    0.497948

 Minimum Search - Taking Simple RFO Step
 Searching for Lamda that Minimizes Along All modes
 Value Taken    Lamda =   0.00000000
 Step Taken.  Stepsize is  0.002821

                             Maximum     Tolerance    Cnvgd?
         Gradient           0.000114      0.000300     YES
         Displacement       0.002267      0.001200      NO
         Energy change     -0.000001      0.000001     YES

 Final energy is   -1104.55558259269     


 ******************************
 **  OPTIMIZATION CONVERGED  **
 ******************************

                       Coordinates (Angstroms)
     ATOM                X               Y               Z
      1  S        -0.0429301520    0.3399918039   -0.0412586298
      2  C         1.6713987809    0.2159330955   -0.0139245405
      3  H         2.2041331598    0.3283938615    0.9231772425
      4  C         2.2193698297   -0.0742875832   -1.2625479231
      5  H         3.2855848089   -0.1492191693   -1.4392777163
      6  C         1.2421587962   -0.2384319415   -2.2445514453
      7  H         1.4500570805   -0.4362926152   -3.2900870409
      8  C        -0.0782590407   -0.0905836633   -1.7541530213
      9  C        -1.2517553734    0.0905485875   -2.5435128487
     10  C        -1.8575237446   -0.8835189316   -3.3745027570
     11  H        -1.3533453067   -1.8041616773   -3.6461880170
     12  C        -3.1531955326   -0.5473284734   -3.7678642560
     13  H        -3.7802881690   -1.1615065336   -4.4029810734
     14  C        -3.5674470653    0.6732646629   -3.2370071603
     15  H        -4.4998921731    1.1888576710   -3.4352835404
     16  S        -2.3932065186    1.3967322062   -2.2109988023

Z-matrix Print:
$molecule
1 2
S 
C  1 1.718994
H  2 1.083791 1 119.780711
C  2 1.394009 1 113.129580 3 177.939816 0
H  4 1.083436 2 123.202193 1 177.482593 0
C  4 1.395178 2 112.308473 1 -1.830720 0
H  6 1.084247 4 124.457617 2 177.884913 0
C  6 1.416442 4 113.382468 2 -0.715072 0
C  8 1.425830 6 126.115378 4 165.266217 0
C  9 1.416281 8 126.078070 6 70.000000 0
H  10 1.084212 9 122.122309 8 -13.349543 0
C  10 1.395068 9 113.393584 8 165.282926 0
H  12 1.083357 10 124.501198 9 179.990926 0
C  12 1.394116 10 112.309797 9 -0.708535 0
H  14 1.083796 12 127.071152 10 175.957870 0
S  14 1.719029 12 113.126790 10 -1.835719 0
$end

 
 --------------------------------------------------------------
 
                    Orbital Energies (a.u.)
 --------------------------------------------------------------
 
 Alpha MOs
 -- Occupied --
-89.097 -89.097 -10.432 -10.432 -10.417 -10.417 -10.393 -10.393
-10.378 -10.378  -8.156  -8.156  -6.121  -6.121  -6.117  -6.117
 -6.113  -6.113  -1.085  -1.060  -0.957  -0.929  -0.921  -0.881
 -0.786  -0.751  -0.732  -0.711  -0.698  -0.650  -0.594  -0.593
 -0.590  -0.579  -0.579  -0.554  -0.548  -0.534  -0.523  -0.458
 -0.439  -0.434  -0.402
 -- Virtual --
 -0.238  -0.203  -0.159  -0.137  -0.135  -0.132  -0.125  -0.106
 -0.097  -0.096  -0.091  -0.083  -0.080  -0.076  -0.069  -0.058
 -0.048  -0.042  -0.036  -0.027  -0.025  -0.020  -0.016  -0.003
  0.000   0.007   0.007   0.008   0.012   0.015   0.019   0.025
  0.026   0.030   0.036   0.039   0.040   0.046   0.056   0.058
  0.059   0.066   0.070   0.080   0.087   0.092   0.094   0.107
  0.115   0.118   0.119   0.131   0.142   0.145   0.147   0.160
  0.176   0.177   0.180   0.195   0.218   0.221   0.230   0.248
  0.264   0.293   0.322   0.323   0.351   0.361   0.392   0.404
  0.414   0.441   0.449   0.465   0.485   0.487   0.499   0.499
  0.532   0.539   0.556   0.561   0.575   0.584   0.592   0.597
  0.622   0.626   0.627   0.657   0.668   0.724   0.729   0.767
  0.776   0.782   0.786   0.815   0.817   0.821   0.835   0.841
  0.847   0.881   0.883   0.886   0.908   0.930   0.930   0.952
  0.970   1.012   1.037   1.040   1.075   1.109   1.109   1.156
  1.169   1.185   1.191   1.206   1.239   1.302   1.302   1.354
  1.435   1.482   1.512   1.539   1.634   1.689   1.711   1.730
  1.744   1.753   1.770   1.794   1.834   1.837   1.863   1.906
  1.935   1.969   1.982   1.998   2.049   2.074   2.094   2.119
  2.198   2.207   2.240   2.270   2.291   2.295   2.310   2.337
  2.341   2.347   2.404   2.412   2.430   2.478   2.522   2.533
  2.577   2.613   2.695   2.700   2.741   2.979   3.004   3.105
  3.107   3.228   3.239   3.546   3.566   3.766   3.826   4.087
  4.115   4.141   4.154   4.247   4.339   4.485   4.520
 
 Beta MOs
 -- Occupied --
-89.098 -89.098 -10.430 -10.430 -10.413 -10.413 -10.391 -10.391
-10.379 -10.379  -8.157  -8.157  -6.121  -6.121  -6.117  -6.117
 -6.114  -6.114  -1.079  -1.054  -0.949  -0.927  -0.919  -0.871
 -0.781  -0.747  -0.727  -0.708  -0.696  -0.647  -0.591  -0.586
 -0.584  -0.577  -0.575  -0.542  -0.539  -0.533  -0.521  -0.436
 -0.435  -0.428
 -- Virtual --
 -0.336  -0.218  -0.190  -0.153  -0.134  -0.125  -0.125  -0.122
 -0.105  -0.096  -0.095  -0.089  -0.082  -0.078  -0.075  -0.068
 -0.056  -0.046  -0.041  -0.035  -0.027  -0.025  -0.019  -0.015
 -0.003   0.001   0.008   0.008   0.010   0.015   0.016   0.020
  0.026   0.028   0.031   0.037   0.039   0.041   0.047   0.058
  0.059   0.060   0.068   0.070   0.081   0.088   0.093   0.095
  0.108   0.115   0.119   0.121   0.133   0.144   0.147   0.148
  0.162   0.177   0.179   0.182   0.196   0.220   0.223   0.232
  0.250   0.266   0.294   0.324   0.325   0.352   0.363   0.395
  0.406   0.415   0.441   0.450   0.466   0.489   0.494   0.506
  0.509   0.535   0.542   0.559   0.561   0.579   0.590   0.595
  0.600   0.627   0.628   0.631   0.663   0.673   0.725   0.731
  0.771   0.778   0.786   0.788   0.817   0.819   0.821   0.837
  0.844   0.849   0.882   0.885   0.888   0.910   0.931   0.932
  0.953   0.975   1.015   1.043   1.046   1.079   1.112   1.113
  1.161   1.173   1.191   1.199   1.208   1.245   1.306   1.309
  1.359   1.445   1.491   1.526   1.551   1.638   1.695   1.714
  1.737   1.748   1.755   1.775   1.800   1.840   1.841   1.869
  1.912   1.944   1.978   1.989   2.010   2.059   2.081   2.099
  2.123   2.203   2.210   2.245   2.277   2.294   2.297   2.314
  2.343   2.344   2.353   2.408   2.417   2.433   2.482   2.526
  2.536   2.582   2.617   2.698   2.702   2.744   2.981   3.006
  3.106   3.107   3.229   3.241   3.548   3.567   3.766   3.826
  4.094   4.122   4.144   4.156   4.254   4.346   4.489   4.524
 --------------------------------------------------------------
 
          Ground-State Mulliken Net Atomic Charges

     Atom                 Charge (a.u.)    Spin (a.u.)
  --------------------------------------------------------
      1 S                     0.111865      -0.057352
      2 C                    -0.006479       0.317324
      3 H                     0.251186      -0.015912
      4 C                    -0.306156      -0.033252
      5 H                     0.172032       0.001740
      6 C                     0.079713       0.140863
      7 H                     0.190217      -0.009443
      8 C                     0.006633       0.156479
      9 C                     0.009730       0.155420
     10 C                     0.081351       0.141222
     11 H                     0.190123      -0.009425
     12 C                    -0.307533      -0.033453
     13 H                     0.172052       0.001746
     14 C                    -0.005536       0.317408
     15 H                     0.251089      -0.015915
     16 S                     0.109713      -0.057452
  --------------------------------------------------------
  Sum of atomic charges =     1.000000
  Sum of spin   charges =     1.000000

 -----------------------------------------------------------------
                    Cartesian Multipole Moments
 -----------------------------------------------------------------
    Charge (ESU x 10^10)
                 4.8032
    Dipole Moment (Debye)
         X      -3.3322      Y       0.2175      Z     -10.0656
       Tot      10.6050
    Quadrupole Moments (Debye-Ang)
        XX     -30.8549     XY      -3.1550     YY     -66.1365
        XZ      23.4383     YZ       4.1152     ZZ     -32.7339
    Octopole Moments (Debye-Ang^2)
       XXX      88.1297    XXY       0.9918    XYY      39.7408
       YYY     -48.1968    XXZ      19.8056    XYZ       5.5925
       YYZ     115.8172    XZZ     -25.3711    YZZ     -35.7082
       ZZZ     273.3839
    Hexadecapole Moments (Debye-Ang^3)
      XXXX   -1271.8323   XXXY      24.6898   XXYY    -310.1886
      XYYY     103.1551   YYYY    -297.0769   XXXZ    -284.1939
      XXYZ     -12.8720   XYYZ    -172.1779   YYYZ      55.0950
      XXZZ    -274.7946   XYZZ      48.0480   YYZZ    -370.9490
      XZZZ    -353.6530   YZZZ     144.0865   ZZZZ   -1849.5753
 -----------------------------------------------------------------
Archival summary:
1\1\nid00815\OPT\ProcedureUnspecified\BasisUnspecified\286(1+,2)\bwood\WedMay3102:27:352017WedMay3102:27:352017\0\\#,OPT,ProcedureUnspecified,BasisUnspecified,\\1,2\S\C,1,1.71899\H,2,1.08379,1,119.781\C,2,1.39401,1,113.13,3,177.94,0\H,4,1.08344,2,123.202,1,177.483,0\C,4,1.39518,2,112.308,1,-1.83072,0\H,6,1.08425,4,124.458,2,177.885,0\C,6,1.41644,4,113.382,2,-0.715072,0\C,8,1.42583,6,126.115,4,165.266,0\C,9,1.41628,8,126.078,6,70,0\H,10,1.08421,9,122.122,8,-13.3495,0\C,10,1.39507,9,113.394,8,165.283,0\H,12,1.08336,10,124.501,9,179.991,0\C,12,1.39412,10,112.31,9,-0.708535,0\H,14,1.0838,12,127.071,10,175.958,0\S,14,1.71903,12,113.127,10,-1.83572,0\\\@

 Total job time:  98.78s(wall), 96.05s(cpu) 
 Wed May 31 02:27:35 2017

        *************************************************************
        *                                                           *
        *  Thank you very much for using Q-Chem.  Have a nice day.  *
        *                                                           *
        *************************************************************


0 sent ACK to 0 
now end server 0 ... 
