srun -N 1 --ntasks-per-node 16 --cpus-per-task 4 --cpu_bind=cores --nodelist nid00796 /global/project/projectdirs/jcesr/qchem/qc44/cnl_qc441/dist/exe/qcprog.cori.haswell.exe .pt_n2_cation_-110.0.in.26586.qcin.1 /global/cscratch1/sd/bwood/qchem/nx/qchem26586/
Process 1 of 16 is on nid00796 - thread support 0
Process 2 of 16 is on nid00796 - thread support 0
Process 3 of 16 is on nid00796 - thread support 0
Process 4 of 16 is on nid00796 - thread support 0
Process 6 of 16 is on nid00796 - thread support 0
Process 0 of 16 is on nid00796 - thread support 0
Process 5 of 16 is on nid00796 - thread support 0
Process 15 of 16 is on nid00796 - thread support 0
initial socket setup ...start
initial socket setup ...done 
now start server 0 ... 
nid00796 10.128.3
Q-Chem Developer Version! Running on 10.128.3.*
                  Welcome to Q-Chem
     A Quantum Leap Into The Future Of Chemistry


 Q-Chem 4.4, Q-Chem, Inc., Pleasanton, CA (2016)

 Y. Shao,  Z. Gan,  E. Epifanovsky,  A. T. B. Gilbert,  M. Wormit,  
 J. Kussmann,  A. W. Lange,  A. Behn,  J. Deng,  X. Feng,  D. Ghosh,  
 M. Goldey,  P. R. Horn,  L. D. Jacobson,  I. Kaliman,  F. Rob,  
 R. Z. Khaliullin,  T. Kus,  A. Landau,  J. Liu,  E. I. Proynov,  Y. M. Rhee,  
 R. M. Richard,  M. A. Rohrdanz,  R. P. Steele,  E. J. Sundstrom,  
 H. L. Woodcock III,  P. M. Zimmerman,  D. Zuev,  B. Albrecht,  E. Alguire,  
 B. Austin,  S. A. Baeppler,  G. J. O. Beran,  Y. A. Bernard,  
 E. J. Berquist,  K. Brandhorst,  K. B. Bravaya,  S. T. Brown,  D. Casanova,  
 C.-M. Chang,  Y. Chen,  S. H. Chien,  K. D. Closser,  M. P. Coons,  
 D. L. Crittenden,  S. Dasgupta,  M. Diedenhofen,  R. A. DiStasio Jr.,  
 H. Do,  A. D. Dutoi,  R. G. Edgar,  P.-T. Fang,  S. Fatehi,  Q. Feng,  
 L. Fusti-Molnar,  A. Ghysels,  A. Golubeva-Zadorozhnaya,  J. Gomes,  
 A. Gunina,  M. W. D. Hanson-Heine,  P. H. P. Harbach,  A. W. Hauser,  
 J. E. Herr,  E. G. Hohenstein,  Z. C. Holden,  K. Hui,  T.-C. Jagau,  H. Ji,  
 B. Kaduk,  K. Khistyaev,  Jaehoon Kim,  Jihan Kim,  R. A. King,  
 P. Klunzinger,  K. Koh,  D. Kosenkov,  T. Kowalczyk,  C. M. Krauter,  
 A. Kunitsa,  K. U. Lao,  A. Laurent,  K. V. Lawler,  J. Lee,  D. Lefrancois,  
 S. Lehtola,  S. V. Levchenko,  C. Y. Lin,  Y.-S. Lin,  F. Liu,  E. Livshits,  
 R. C. Lochan,  A. Luenser,  P. Manohar,  S. F. Manzer,  S.-P. Mao,  Y. Mao,  
 N. Mardirossian,  A. V. Marenich,  L. A. Martinez-Martinez,  S. A. Maurer,  
 N. J. Mayhall,  J.-M. Mewes,  A. F. Morrison,  K. Nanda,  T. S. Nguyen-Beck,  
 C. M. Oana,  R. Olivares-Amaya,  D. P. O'Neill,  J. A. Parkhill,  
 T. M. Perrine,  R. Peverati,  P. A. Pieniazek,  F. Plasser,  A. Prociuk,  
 D. R. Rehn,  E. Rosta,  N. J. Russ,  N. Sergueev,  S. M. Sharada,  
 S. Sharma,  D. W. Small,  A. Sodt,  T. Stauch,  T. Stein,  D. Stuck,  
 Y.-C. Su,  A. J. W. Thom,  T. Tsuchimochi,  L. Vogt,  O. Vydrov,  T. Wang,  
 M. A. Watson,  J. Wenzel,  A. White,  C. F. Williams,  V. Vanovschi,  
 K. Yao,  S. Yeganeh,  S. R. Yost,  Z.-Q. You,  I. Y. Zhang,  X. Zhang,  
 Y. Zhao,  B. R. Brooks,  G. K. L. Chan,  D. M. Chipman,  C. J. Cramer,  
 W. A. Goddard III,  M. S. Gordon,  W. J. Hehre,  A. Klamt,  
 H. F. Schaefer III,  M. W. Schmidt,  C. D. Sherrill,  D. G. Truhlar,  
 A. Warshel,  X. Xu,  A. Aspuru-Guzik,  R. Baer,  A. T. Bell,  N. A. Besley,  
 J.-D. Chai,  A. Dreuw,  B. D. Dunietz,  T. R. Furlani,  S. R. Gwaltney,  
 C.-P. Hsu,  Y. Jung,  J. Kong,  D. S. Lambrecht,  W. Liang,  C. Ochsenfeld,  
 V. A. Rassolov,  L. V. Slipchenko,  J. E. Subotnik,  T. Van Voorhis,  
 J. M. Herbert,  A. I. Krylov,  P. M. W. Gill,  M. Head-Gordon

 Contributors to earlier versions of Q-Chem not listed above: 
 R. D. Adamson,  J. Baker,  E. F. C. Byrd,  A. K. Chakraborty,  C.-L. Cheng,  
 H. Dachsel,  R. J. Doerksen,  G. Hawkins,  A. Heyden,  S. Hirata,  
 G. Kedziora,  F. J. Keil,  C. Kelley,  P. P. Korambath,  W. Kurlancheek,  
 A. M. Lee,  M. S. Lee,  D. Liotard,  I. Lotan,  P. E. Maslen,  N. Nair,  
 D. Neuhauser,  R. Olson,  B. Peters,  J. Ritchie,  N. E. Schultz,  
 N. Shenvi,  A. C. Simmonett,  K. S. Thanthiriwatte,  Q. Wu,  W. Zhang

 Please cite Q-Chem as follows:
 Y. Shao et al., Mol. Phys. 113, 184-215 (2015)
 DOI: 10.1080/00268976.2014.952696

 Q-Chem 4.4.2 for Intel X86 EM64T Linux

 Parts of Q-Chem use Armadillo 5.200.1 (Boston Tea Smuggler).
 http://arma.sourceforge.net/

 Q-Chem begins on Wed May 31 02:25:51 2017  

Host: nid00776
0

     Scratch files written to /global/cscratch1/sd/bwood/qchem/nx/qchem26586.0//
 Parallel job on  16  processors

Checking the input file for inconsistencies... 	...done.

--------------------------------------------------------------
User input:
--------------------------------------------------------------
$molecule
 1  2
 S           0.00238887        0.06077275        0.00183269
 C           1.73707619        0.03315849        0.00323229
 H           2.27612737        0.05289032        0.94042557
 C           2.24169204       -0.01546201       -1.26965798
 H           3.30285780       -0.04005365       -1.48972496
 C           1.22479222       -0.01612968       -2.26811464
 H           1.42674790       -0.02650987       -3.33334501
 C          -0.05393771        0.02880388       -1.75170966
 C          -1.32450815        0.04889988       -2.45636342
 C          -2.23416442        1.07944120       -2.57698044
 H          -2.07418814        2.05791538       -2.13787460
 C          -3.37730757        0.74051315       -3.35751631
 H          -4.19034094        1.42657815       -3.56580984
 C          -3.33603304       -0.54461423       -3.83067402
 H          -4.05969520       -1.05712788       -4.44964422
 S          -1.90101571       -1.37052831       -3.31286472
$end


$rem
         jobtype = opt
        exchange = b3lyp
           basis = 6-31++g**
  max_scf_cycles = 150
      mem_static = 775
       mem_total = 7750
      sym_ignore = true
        symmetry = false
          thresh = 12
$end


$opt
CONSTRAINT
tors 6 8 9 10 -110.0
ENDCONSTRAINT
$end

--------------------------------------------------------------
 ----------------------------------------------------------------
             Standard Nuclear Orientation (Angstroms)
    I     Atom           X                Y                Z
 ----------------------------------------------------------------
    1      S       0.0023888700     0.0607727500     0.0018326900
    2      C       1.7370761900     0.0331584900     0.0032322900
    3      H       2.2761273700     0.0528903200     0.9404255700
    4      C       2.2416920400    -0.0154620100    -1.2696579800
    5      H       3.3028578000    -0.0400536500    -1.4897249600
    6      C       1.2247922200    -0.0161296800    -2.2681146400
    7      H       1.4267479000    -0.0265098700    -3.3333450100
    8      C      -0.0539377100     0.0288038800    -1.7517096600
    9      C      -1.3245081500     0.0488998800    -2.4563634200
   10      C      -2.2341644200     1.0794412000    -2.5769804400
   11      H      -2.0741881400     2.0579153800    -2.1378746000
   12      C      -3.3773075700     0.7405131500    -3.3575163100
   13      H      -4.1903409400     1.4265781500    -3.5658098400
   14      C      -3.3360330400    -0.5446142300    -3.8306740200
   15      H      -4.0596952000    -1.0571278800    -4.4496442200
   16      S      -1.9010157100    -1.3705283100    -3.3128647200
 ----------------------------------------------------------------
 Nuclear Repulsion Energy =   628.2934811313 hartrees
 There are       43 alpha and       42 beta electrons
 Requested basis set is 6-31++G(d,p)
 There are 76 shells and 234 basis functions

 Total QAlloc Memory Limit   7750 MB
 Mega-Array Size       758 MB
 MEM_STATIC part       775 MB
 A cutoff of  1.0D-12 yielded   2528 shell pairs
 There are     24898 function pairs

 Q-Chem warning in module /project/projectdirs/jcesr/qchem/qc44/cnl_qc441/compile/cori/qc_src/libqints/qchem/aobasis.C, line 68:

 Using reconstructed effective core potential

 
 -------------------------------------------------------
 OpenMP Integral Computing Module                       
 Release: version 1.0, May 2013, Q-Chem Inc. Pittsburgh 
 -------------------------------------------------------
 Integral Job Info:
 Integral job number is                      11
 Integral operator is                         1
 short-range coefficients                     0
 long-range coefficients              100000000
 Omega coefficients                           0
 if combine SR and LR in K                    0
 Integral screening is                        0
 Integral computing path is                   2
 max size of driver memory is            800000
 size of driver memory is                593474
 size of scratch memory is             15166112
 max col of scratch BK array               1296
 max len of scratch array in speh3          155
 max len of scratch index in speh4           18
 max int batch size is                      520
 min int batch size is                       52
 fixed nKL is                                52
 max L of basis functions is                  2
 order of int derivative is                   0
 number of shells is                         76
 number of basis is                         234
 number of cartesian basis is               234
 number of contracted shell pairs          2528
 number of primitive shell pairs           8227
 maxK2 (contraction) of shell pair           36
 max number of K2 of shell pair               1
 max number of CS2 of shell pair            266
 max number of PS2 of shell pair           1512
 mem total for path MDJ                   51992
 -------------------------------------------------------
 Smallest overlap matrix eigenvalue = 1.09E-06

 Scale SEOQF with 1.000000e-01/1.000000e-01/1.000000e-01

 Standard Electronic Orientation quadrupole field applied
 Nucleus-field energy     =    -0.0000000395 hartrees
 Guess from superposition of atomic densities
 Warning:  Energy on first SCF cycle will be non-variational
 An unrestricted hybrid HF-DFT SCF calculation will be
 performed using Pulay DIIS extrapolation
 Exchange:     0.2000 Hartree-Fock + 0.0800 Slater + 0.7200 B88
 Correlation:  0.1900 VWN1RPA + 0.8100 LYP
 Using SG-1 standard quadrature grid
 SCF converges when DIIS error is below 1.0E-08
 Inaccurate integrated density:
   Number of electrons =    85
   Numerical integral  =    86.000274602040
   Relative error      =     1.1767936495 %
 ---------------------------------------
  Cycle       Energy         DIIS Error
 ---------------------------------------
    1   -1107.1583720844      4.39E-02
    2   -1104.4086441075      4.09E-03
    3   -1104.0749625588      7.42E-03
    4   -1104.5190403275      1.63E-03
    5   -1104.5358116323      8.30E-04
    6   -1104.5410512375      4.29E-04
    7   -1104.5426955435      1.80E-04
    8   -1104.5430698224      4.52E-05
    9   -1104.5431658717      3.28E-05
   10   -1104.5432685432      1.71E-05
   11   -1104.5433167097      7.87E-06
   12   -1104.5433241046      5.16E-06
   13   -1104.5433269327      2.13E-06
   14   -1104.5433278003      7.66E-07
   15   -1104.5433278470      5.33E-07
   16   -1104.5433278696      1.20E-07
   17   -1104.5433278713      7.30E-08
   18   -1104.5433278714      4.03E-08
   19   -1104.5433278712      2.72E-08
   20   -1104.5433278715      1.27E-08
   21   -1104.5433278715      5.13E-09 Convergence criterion met
 ---------------------------------------
 <S^2> = 0.7600
 SCF time:  CPU 13.84 s  wall 13.21 s
 SCF   energy in the final basis set = -1104.5433278715
 Total energy in the final basis set = -1104.5433278715
 
 --------------------------------------------------------------
 
                    Orbital Energies (a.u.)
 --------------------------------------------------------------
 
 Alpha MOs
 -- Occupied --
-89.094 -89.094 -10.434 -10.433 -10.416 -10.416 -10.391 -10.391
-10.380 -10.380  -8.153  -8.153  -6.118  -6.118  -6.113  -6.113
 -6.110  -6.110  -1.086  -1.062  -0.960  -0.922  -0.917  -0.892
 -0.786  -0.749  -0.738  -0.710  -0.697  -0.653  -0.598  -0.594
 -0.592  -0.582  -0.575  -0.555  -0.554  -0.523  -0.520  -0.447
 -0.435  -0.430  -0.423
 -- Virtual --
 -0.224  -0.205  -0.154  -0.153  -0.136  -0.123  -0.123  -0.106
 -0.099  -0.093  -0.091  -0.086  -0.079  -0.078  -0.065  -0.060
 -0.045  -0.040  -0.036  -0.032  -0.017  -0.016  -0.014  -0.009
 -0.002   0.003   0.005   0.006   0.009   0.015   0.023   0.023
  0.026   0.028   0.034   0.035   0.041   0.050   0.052   0.060
  0.062   0.062   0.073   0.074   0.080   0.089   0.097   0.104
  0.114   0.116   0.124   0.132   0.141   0.142   0.151   0.152
  0.172   0.178   0.179   0.185   0.219   0.224   0.238   0.242
  0.280   0.306   0.307   0.340   0.363   0.370   0.381   0.423
  0.425   0.430   0.457   0.462   0.475   0.490   0.498   0.515
  0.534   0.547   0.561   0.564   0.572   0.581   0.599   0.612
  0.622   0.636   0.636   0.658   0.672   0.714   0.746   0.766
  0.771   0.784   0.796   0.806   0.810   0.833   0.834   0.850
  0.855   0.858   0.859   0.915   0.918   0.921   0.944   0.946
  0.972   1.014   1.036   1.044   1.096   1.098   1.148   1.164
  1.169   1.175   1.189   1.214   1.284   1.290   1.311   1.348
  1.374   1.505   1.509   1.583   1.620   1.672   1.697   1.709
  1.743   1.749   1.789   1.815   1.828   1.845   1.889   1.929
  1.941   1.956   2.000   2.007   2.026   2.084   2.085   2.161
  2.198   2.203   2.253   2.255   2.292   2.299   2.323   2.332
  2.343   2.352   2.409   2.417   2.427   2.474   2.527   2.530
  2.569   2.666   2.678   2.711   2.752   2.986   3.006   3.108
  3.111   3.234   3.255   3.551   3.569   3.797   3.799   4.086
  4.123   4.131   4.152   4.248   4.346   4.479   4.529
 
 Beta MOs
 -- Occupied --
-89.094 -89.094 -10.431 -10.430 -10.412 -10.412 -10.389 -10.389
-10.380 -10.380  -8.153  -8.153  -6.118  -6.118  -6.114  -6.113
 -6.110  -6.110  -1.080  -1.057  -0.950  -0.920  -0.915  -0.882
 -0.781  -0.745  -0.733  -0.708  -0.695  -0.650  -0.594  -0.590
 -0.584  -0.579  -0.572  -0.545  -0.541  -0.522  -0.518  -0.434
 -0.428  -0.417
 -- Virtual --
 -0.359  -0.207  -0.188  -0.150  -0.149  -0.128  -0.121  -0.115
 -0.104  -0.099  -0.091  -0.090  -0.086  -0.078  -0.075  -0.064
 -0.059  -0.044  -0.039  -0.036  -0.030  -0.016  -0.015  -0.013
 -0.009  -0.001   0.004   0.006   0.007   0.010   0.017   0.024
  0.024   0.027   0.029   0.034   0.037   0.042   0.051   0.054
  0.061   0.063   0.063   0.074   0.075   0.082   0.090   0.098
  0.104   0.115   0.117   0.128   0.133   0.142   0.142   0.153
  0.154   0.174   0.180   0.180   0.187   0.220   0.225   0.240
  0.244   0.282   0.309   0.309   0.343   0.362   0.371   0.382
  0.424   0.427   0.431   0.460   0.466   0.481   0.500   0.505
  0.522   0.536   0.550   0.563   0.566   0.574   0.583   0.603
  0.619   0.628   0.638   0.639   0.663   0.677   0.716   0.748
  0.772   0.775   0.787   0.797   0.809   0.812   0.835   0.836
  0.852   0.858   0.860   0.861   0.917   0.920   0.922   0.947
  0.948   0.975   1.017   1.041   1.049   1.099   1.101   1.151
  1.171   1.177   1.180   1.194   1.218   1.289   1.295   1.315
  1.355   1.382   1.517   1.522   1.589   1.628   1.678   1.701
  1.711   1.746   1.752   1.795   1.821   1.833   1.850   1.892
  1.936   1.950   1.965   2.010   2.018   2.034   2.091   2.091
  2.166   2.201   2.206   2.255   2.261   2.299   2.301   2.327
  2.336   2.347   2.355   2.413   2.421   2.431   2.478   2.531
  2.534   2.575   2.669   2.680   2.713   2.756   2.987   3.007
  3.109   3.112   3.235   3.257   3.553   3.571   3.797   3.799
  4.093   4.126   4.138   4.155   4.254   4.353   4.483   4.533
 --------------------------------------------------------------
 
          Ground-State Mulliken Net Atomic Charges

     Atom                 Charge (a.u.)    Spin (a.u.)
  --------------------------------------------------------
      1 S                     0.148211      -0.053511
      2 C                     0.063524       0.284588
      3 H                     0.247038      -0.013062
      4 C                    -0.364278      -0.002339
      5 H                     0.174111      -0.000782
      6 C                     0.286723       0.089124
      7 H                     0.180735      -0.004900
      8 C                    -0.235946       0.200702
      9 C                    -0.234971       0.200977
     10 C                     0.285309       0.089089
     11 H                     0.180813      -0.004885
     12 C                    -0.364040      -0.002241
     13 H                     0.174072      -0.000788
     14 C                     0.062902       0.284566
     15 H                     0.247070      -0.013067
     16 S                     0.148727      -0.053470
  --------------------------------------------------------
  Sum of atomic charges =     1.000000
  Sum of spin   charges =     1.000000

 -----------------------------------------------------------------
                    Cartesian Multipole Moments
 -----------------------------------------------------------------
    Charge (ESU x 10^10)
                 4.8032
    Dipole Moment (Debye)
         X      -3.2511      Y       0.3495      Z     -10.2134
       Tot      10.7241
    Quadrupole Moments (Debye-Ang)
        XX     -31.5026     XY      -0.9881     YY     -65.7251
        XZ      25.4673     YZ       1.8440     ZZ     -31.2354
    Octopole Moments (Debye-Ang^2)
       XXX      86.9562    XXY      10.0064    XYY      32.0794
       YYY      26.9809    XXZ      22.3688    XYZ      -4.6985
       YYZ     123.7561    XZZ     -43.6476    YZZ      -7.4607
       ZZZ     289.6068
    Hexadecapole Moments (Debye-Ang^3)
      XXXX   -1248.3927   XXXY     -47.1511   XXYY    -291.3019
      XYYY     -46.7635   YYYY    -290.2038   XXXZ    -316.3312
      XXYZ     -18.0836   XYYZ    -174.7727   YYYZ    -109.8883
      XXZZ    -248.3506   XYZZ      35.6979   YYZZ    -425.6852
      XZZZ    -311.8320   YZZZ     -23.4678   ZZZZ   -2092.3523
 -----------------------------------------------------------------
 Calculating analytic gradient of the SCF energy
 Gradient of SCF Energy
            1           2           3           4           5           6
    1   0.0030640   0.0167433  -0.0007559   0.0005952   0.0003469  -0.0306206
    2  -0.0098500  -0.0006313   0.0029704  -0.0025093  -0.0013346   0.0111973
    3  -0.0109397  -0.0090029  -0.0012937   0.0289608   0.0006674   0.0021088
            7           8           9          10          11          12
    1  -0.0003820   0.0191044  -0.0137942   0.0296683   0.0004525  -0.0105826
    2   0.0004495  -0.0013105   0.0150419  -0.0134344   0.0000323  -0.0244008
    3  -0.0000162  -0.0074432  -0.0012714  -0.0007335  -0.0002768  -0.0115520
           13          14          15          16
    1  -0.0011450  -0.0112560   0.0024417  -0.0038802
    2  -0.0007844   0.0153830   0.0015510   0.0076296
    3   0.0006705  -0.0004546  -0.0016595   0.0122360
 Max gradient component =       3.062E-02
 RMS gradient           =       1.105E-02
 Gradient time:  CPU 1.90 s  wall 1.93 s
 Geometry Optimization Parameters
   NAtoms,    NIC,     NZ,  NCons,   NDum,   NFix, NCnnct, MaxDiis
       16     111       0       1       0       0       0       0


** CONSTRAINED OPTIMIZATION IN DELOCALIZED INTERNAL COORDINATES **
   Searching for a Minimum

   Optimization Cycle:   1

                       Coordinates (Angstroms)
     ATOM                X               Y               Z
      1  S         0.0023888700    0.0607727500    0.0018326900
      2  C         1.7370761900    0.0331584900    0.0032322900
      3  H         2.2761273700    0.0528903200    0.9404255700
      4  C         2.2416920400   -0.0154620100   -1.2696579800
      5  H         3.3028578000   -0.0400536500   -1.4897249600
      6  C         1.2247922200   -0.0161296800   -2.2681146400
      7  H         1.4267479000   -0.0265098700   -3.3333450100
      8  C        -0.0539377100    0.0288038800   -1.7517096600
      9  C        -1.3245081500    0.0488998800   -2.4563634200
     10  C        -2.2341644200    1.0794412000   -2.5769804400
     11  H        -2.0741881400    2.0579153800   -2.1378746000
     12  C        -3.3773075700    0.7405131500   -3.3575163100
     13  H        -4.1903409400    1.4265781500   -3.5658098400
     14  C        -3.3360330400   -0.5446142300   -3.8306740200
     15  H        -4.0596952000   -1.0571278800   -4.4496442200
     16  S        -1.9010157100   -1.3705283100   -3.3128647200
   Point Group: c1    Number of degrees of freedom:    42


   Energy is  -1104.543327871

              Constraints and their Current Values
                                        Value     Constraint
   Dihedral:        6   8   9  10     -110.000     -110.000

 Attempting to Generate Delocalized Internal Coordinates

 41 Hessian modes will be used to form the next step
  Hessian Eigenvalues:
     0.045000    0.045000    0.045000    0.045000    0.045000    0.045000
     0.045002    0.045002    0.045003    0.045004    0.045011    0.045012
     0.159943    0.159949    0.159991    0.159992    0.160000    0.160000
     0.221282    0.221282    0.237835    0.237839    0.250000    0.250000
     0.294264    0.294663    0.312518    0.312618    0.354736    0.354850
     0.355125    0.355132    0.358226    0.358329    0.378510    0.404854
     0.404909    0.463547    0.463616    0.497922    0.497945

 Minimum Search - Taking Simple RFO Step
 Searching for Lamda that Minimizes Along All modes
 Value Taken    Lamda =  -0.01244676
 Calculated Step too Large.  Step scaled by  0.957130
 Step Taken.  Stepsize is  0.300000

                             Maximum     Tolerance    Cnvgd?
         Gradient           0.029005      0.000300      NO
         Displacement       0.163300      0.001200      NO
         Energy change     *********      0.000001      NO


 New Cartesian Coordinates Obtained by Inverse Iteration

 Displacement from previous Coordinates is:  0.531246
 ----------------------------------------------------------------
             Standard Nuclear Orientation (Angstroms)
    I     Atom           X                Y                Z
 ----------------------------------------------------------------
    1      S      -0.0252875046     0.1256498518     0.0312778452
    2      C       1.7043144476     0.0782459314    -0.0198314249
    3      H       2.2590068258     0.1231113232     0.9096155806
    4      C       2.2177837358    -0.0047822804    -1.3088180811
    5      H       3.2770470217    -0.0186453964    -1.5372360723
    6      C       1.2081033300    -0.0727624473    -2.2797521621
    7      H       1.3937933245    -0.1225782647    -3.3469085957
    8      C      -0.0770961593    -0.0250897998    -1.7234417620
    9      C      -1.3400128764    -0.0016923074    -2.4188977694
   10      C      -2.2432294689     1.0647522114    -2.5199128105
   11      H      -2.0870853524     2.0252871274    -2.0415332840
   12      C      -3.3405810577     0.7646818048    -3.3401203123
   13      H      -4.1443676793     1.4600800318    -3.5516307177
   14      C      -3.2811447985    -0.5281951314    -3.8470795385
   15      H      -4.0038685360    -1.0194596126    -4.4874032962
   16      S      -1.8568837420    -1.3900554719    -3.3731168691
 ----------------------------------------------------------------
 Nuclear Repulsion Energy =   628.0374785898 hartrees
 There are       43 alpha and       42 beta electrons
 Applying Cartesian multipole field
    Component          Value
    ---------          -----
     (2,0,0)        1.00000E-11
     (0,2,0)        2.00000E-11
     (0,0,2)       -3.00000E-11
 Nucleus-field energy     =    -0.0000000402 hartrees
 Requested basis set is 6-31++G(d,p)
 There are 76 shells and 234 basis functions
 A cutoff of  1.0D-12 yielded   2540 shell pairs
 There are     25040 function pairs

 Q-Chem warning in module /project/projectdirs/jcesr/qchem/qc44/cnl_qc441/compile/cori/qc_src/libqints/qchem/aobasis.C, line 68:

 Using reconstructed effective core potential

 Smallest overlap matrix eigenvalue = 9.09E-07
 Linear dependence detected in AO basis
 Number of orthogonalized atomic orbitals = 233
 Maximum deviation from orthogonality = 4.493E-11
 No. of orbitals has changed due to linear dependencies.  Generating new SCF guess.
 Guess from superposition of atomic densities
 Warning:  Energy on first SCF cycle will be non-variational
 An unrestricted hybrid HF-DFT SCF calculation will be
 performed using Pulay DIIS extrapolation
 Exchange:     0.2000 Hartree-Fock + 0.0800 Slater + 0.7200 B88
 Correlation:  0.1900 VWN1RPA + 0.8100 LYP
 Using SG-1 standard quadrature grid
 SCF converges when DIIS error is below 1.0E-08
 Geometry optimization detected.  Setting ReadMinima to 0
 Setting SaveMinima to 0
 Inaccurate integrated density:
   Number of electrons =    85
   Numerical integral  =    86.000006480889
   Relative error      =     1.1764782128 %
 ---------------------------------------
  Cycle       Energy         DIIS Error
 ---------------------------------------
    1   -1107.1101076157      4.38E-02
    2   -1104.4199271873      4.06E-03
    3   -1104.1177116299      7.18E-03
    4   -1104.5351058096      1.33E-03
    5   -1104.5453579034      7.38E-04
    6   -1104.5498035707      2.53E-04
    7   -1104.5502870878      1.29E-04
    8   -1104.5504578444      3.48E-05
    9   -1104.5504915832      1.73E-05
   10   -1104.5505169182      8.35E-06
   11   -1104.5505304508      4.15E-06
   12   -1104.5505329018      3.02E-06
   13   -1104.5505337045      1.08E-06
   14   -1104.5505338864      3.04E-07
   15   -1104.5505339024      1.34E-07
   16   -1104.5505339036      3.33E-08
   17   -1104.5505339038      2.29E-08
   18   -1104.5505339036      7.35E-09 Convergence criterion met
 ---------------------------------------
 <S^2> = 0.7619
 SCF time:  CPU 12.09 s  wall 11.48 s
 SCF   energy in the final basis set = -1104.5505339036
 Total energy in the final basis set = -1104.5505339036
 
 --------------------------------------------------------------
 
                    Orbital Energies (a.u.)
 --------------------------------------------------------------
 
 Alpha MOs
 -- Occupied --
-89.097 -89.097 -10.432 -10.431 -10.416 -10.416 -10.390 -10.390
-10.379 -10.379  -8.156  -8.156  -6.121  -6.120  -6.116  -6.116
 -6.113  -6.113  -1.083  -1.059  -0.954  -0.927  -0.922  -0.882
 -0.783  -0.749  -0.734  -0.712  -0.698  -0.647  -0.593  -0.592
 -0.586  -0.580  -0.575  -0.554  -0.550  -0.532  -0.527  -0.446
 -0.437  -0.434  -0.412
 -- Virtual --
 -0.229  -0.206  -0.159  -0.159  -0.134  -0.123  -0.121  -0.107
 -0.099  -0.094  -0.090  -0.086  -0.080  -0.076  -0.066  -0.059
 -0.044  -0.040  -0.034  -0.031  -0.017  -0.014  -0.014  -0.010
 -0.000   0.004   0.004   0.007   0.013   0.015   0.021   0.023
  0.026   0.029   0.032   0.036   0.040   0.050   0.051   0.062
  0.063   0.069   0.075   0.077   0.083   0.092   0.098   0.106
  0.112   0.112   0.117   0.123   0.143   0.144   0.153   0.156
  0.175   0.175   0.193   0.214   0.224   0.230   0.238   0.253
  0.306   0.307   0.348   0.365   0.365   0.376   0.415   0.419
  0.436   0.455   0.457   0.479   0.487   0.498   0.514   0.539
  0.549   0.561   0.562   0.575   0.589   0.598   0.616   0.624
  0.635   0.637   0.659   0.669   0.711   0.734   0.762   0.763
  0.782   0.794   0.800   0.810   0.815   0.835   0.836   0.845
  0.849   0.854   0.911   0.912   0.916   0.941   0.948   0.973
  0.999   1.018   1.045   1.094   1.096   1.145   1.168   1.171
  1.177   1.188   1.216   1.276   1.290   1.304   1.346   1.371
  1.503   1.509   1.575   1.622   1.663   1.719   1.720   1.736
  1.742   1.795   1.831   1.834   1.850   1.892   1.924   1.931
  1.947   2.005   2.007   2.025   2.075   2.089   2.151   2.200
  2.204   2.250   2.253   2.285   2.298   2.319   2.329   2.334
  2.351   2.398   2.406   2.416   2.468   2.527   2.528   2.576
  2.667   2.671   2.706   2.741   2.980   3.003   3.105   3.108
  3.230   3.249   3.552   3.569   3.794   3.799   4.086   4.093
  4.128   4.147   4.248   4.337   4.486   4.533
 
 Beta MOs
 -- Occupied --
-89.098 -89.098 -10.429 -10.429 -10.412 -10.412 -10.389 -10.389
-10.379 -10.379  -8.156  -8.156  -6.121  -6.121  -6.117  -6.117
 -6.114  -6.113  -1.077  -1.053  -0.946  -0.925  -0.919  -0.871
 -0.778  -0.744  -0.729  -0.709  -0.696  -0.644  -0.588  -0.585
 -0.581  -0.578  -0.572  -0.543  -0.540  -0.530  -0.525  -0.437
 -0.432  -0.416
 -- Virtual --
 -0.347  -0.211  -0.189  -0.155  -0.155  -0.127  -0.120  -0.112
 -0.105  -0.098  -0.092  -0.089  -0.086  -0.079  -0.074  -0.065
 -0.058  -0.043  -0.038  -0.034  -0.029  -0.016  -0.014  -0.013
 -0.010   0.000   0.005   0.006   0.009   0.014   0.017   0.022
  0.024   0.027   0.030   0.033   0.038   0.042   0.051   0.053
  0.063   0.063   0.071   0.076   0.079   0.084   0.094   0.099
  0.106   0.113   0.114   0.120   0.124   0.144   0.145   0.155
  0.158   0.177   0.177   0.195   0.215   0.225   0.232   0.240
  0.257   0.309   0.309   0.351   0.365   0.367   0.376   0.417
  0.422   0.437   0.457   0.458   0.484   0.498   0.504   0.522
  0.541   0.552   0.562   0.564   0.576   0.591   0.602   0.622
  0.630   0.638   0.640   0.664   0.675   0.714   0.736   0.767
  0.768   0.785   0.795   0.803   0.813   0.817   0.837   0.838
  0.848   0.851   0.855   0.912   0.913   0.918   0.944   0.950
  0.977   1.004   1.022   1.050   1.097   1.098   1.146   1.176
  1.180   1.180   1.193   1.219   1.281   1.295   1.309   1.354
  1.378   1.516   1.522   1.583   1.628   1.669   1.721   1.723
  1.741   1.746   1.799   1.837   1.839   1.855   1.896   1.933
  1.937   1.957   2.016   2.016   2.034   2.082   2.095   2.156
  2.204   2.207   2.255   2.256   2.291   2.299   2.322   2.334
  2.338   2.355   2.402   2.410   2.421   2.472   2.530   2.532
  2.582   2.670   2.674   2.708   2.744   2.981   3.005   3.105
  3.109   3.231   3.251   3.553   3.571   3.794   3.799   4.093
  4.100   4.131   4.149   4.254   4.344   4.490   4.537
 --------------------------------------------------------------
 
          Ground-State Mulliken Net Atomic Charges

     Atom                 Charge (a.u.)    Spin (a.u.)
  --------------------------------------------------------
      1 S                     0.174229      -0.054193
      2 C                     0.076275       0.300504
      3 H                     0.247220      -0.013872
      4 C                    -0.352359      -0.012304
      5 H                     0.174193       0.000227
      6 C                     0.297893       0.105596
      7 H                     0.182479      -0.005745
      8 C                    -0.300181       0.179868
      9 C                    -0.298152       0.179486
     10 C                     0.296097       0.105768
     11 H                     0.182561      -0.005716
     12 C                    -0.351869      -0.012218
     13 H                     0.174144       0.000221
     14 C                     0.075424       0.300351
     15 H                     0.247209      -0.013872
     16 S                     0.174838      -0.054100
  --------------------------------------------------------
  Sum of atomic charges =     1.000000
  Sum of spin   charges =     1.000000

 -----------------------------------------------------------------
                    Cartesian Multipole Moments
 -----------------------------------------------------------------
    Charge (ESU x 10^10)
                 4.8032
    Dipole Moment (Debye)
         X      -3.2496      Y       0.3513      Z     -10.2144
       Tot      10.7246
    Quadrupole Moments (Debye-Ang)
        XX     -32.9384     XY      -1.1753     YY     -65.4852
        XZ      24.5312     YZ       2.6332     ZZ     -30.8953
    Octopole Moments (Debye-Ang^2)
       XXX      91.9176    XXY      12.0296    XYY      31.8842
       YYY      26.0536    XXZ      26.4614    XYZ      -3.7470
       YYZ     123.2513    XZZ     -41.4099    YZZ     -10.3093
       ZZZ     287.0149
    Hexadecapole Moments (Debye-Ang^3)
      XXXX   -1243.8416   XXXY     -52.3085   XXYY    -286.2219
      XYYY     -46.2312   YYYY    -293.6594   XXXZ    -333.3723
      XXYZ     -27.0936   XYYZ    -171.8346   YYYZ    -119.0922
      XXZZ    -260.7905   XYZZ      34.0830   YYZZ    -425.7895
      XZZZ    -308.6817   YZZZ     -22.4546   ZZZZ   -2092.4884
 -----------------------------------------------------------------
 Calculating analytic gradient of the SCF energy
 Gradient of SCF Energy
            1           2           3           4           5           6
    1  -0.0069681   0.0031858  -0.0009301   0.0013553  -0.0000546  -0.0063592
    2  -0.0048786  -0.0029536   0.0021056  -0.0002878  -0.0009939   0.0101703
    3   0.0035484  -0.0053263   0.0000439   0.0044859  -0.0012596  -0.0019891
            7           8           9          10          11          12
    1   0.0013941   0.0120145  -0.0125423   0.0107153  -0.0007564  -0.0026427
    2   0.0007742  -0.0055171   0.0041243   0.0014544   0.0009934  -0.0031548
    3  -0.0001252   0.0001880   0.0008106  -0.0054931  -0.0010243  -0.0022925
           13          14          15          16
    1  -0.0000528  -0.0023717   0.0017663   0.0022466
    2   0.0007309   0.0050823   0.0001046  -0.0077543
    3   0.0014175   0.0039540  -0.0014841   0.0045458
 Max gradient component =       1.254E-02
 RMS gradient           =       4.507E-03
 Gradient time:  CPU 1.90 s  wall 1.88 s
 Geometry Optimization Parameters
   NAtoms,    NIC,     NZ,  NCons,   NDum,   NFix, NCnnct, MaxDiis
       16     111       0       1       0       0       0       0

 Cartesian Hessian Update
 Hessian Updated using BFGS Update


** CONSTRAINED OPTIMIZATION IN DELOCALIZED INTERNAL COORDINATES **
   Searching for a Minimum

   Optimization Cycle:   2

                       Coordinates (Angstroms)
     ATOM                X               Y               Z
      1  S        -0.0252875046    0.1256498518    0.0312778452
      2  C         1.7043144476    0.0782459314   -0.0198314249
      3  H         2.2590068258    0.1231113232    0.9096155806
      4  C         2.2177837358   -0.0047822804   -1.3088180811
      5  H         3.2770470217   -0.0186453964   -1.5372360723
      6  C         1.2081033300   -0.0727624473   -2.2797521621
      7  H         1.3937933245   -0.1225782647   -3.3469085957
      8  C        -0.0770961593   -0.0250897998   -1.7234417620
      9  C        -1.3400128764   -0.0016923074   -2.4188977694
     10  C        -2.2432294689    1.0647522114   -2.5199128105
     11  H        -2.0870853524    2.0252871274   -2.0415332840
     12  C        -3.3405810577    0.7646818048   -3.3401203123
     13  H        -4.1443676793    1.4600800318   -3.5516307177
     14  C        -3.2811447985   -0.5281951314   -3.8470795385
     15  H        -4.0038685360   -1.0194596126   -4.4874032962
     16  S        -1.8568837420   -1.3900554719   -3.3731168691
   Point Group: c1    Number of degrees of freedom:    42


   Energy is  -1104.550533904

              Constraints and their Current Values
                                        Value     Constraint
   Dihedral:        6   8   9  10     -110.000     -110.000
 Hessian Updated using BFGS Update

 40 Hessian modes will be used to form the next step
  Hessian Eigenvalues:
     0.030212    0.045000    0.045000    0.045000    0.045000    0.045002
     0.045002    0.045004    0.045011    0.045012    0.045941    0.159856
     0.159948    0.159966    0.159992    0.160000    0.160525    0.221282
     0.222253    0.237837    0.249073    0.250000    0.283159    0.294457
     0.298217    0.312568    0.315126    0.354722    0.354840    0.355107
     0.355129    0.358224    0.358328    0.376401    0.404881    0.425697
     0.459602    0.463582    0.497933    0.520473

 Minimum Search - Taking Simple RFO Step
 Searching for Lamda that Minimizes Along All modes
 Value Taken    Lamda =  -0.00483059
 Calculated Step too Large.  Step scaled by  0.859812
 Step Taken.  Stepsize is  0.300000

                             Maximum     Tolerance    Cnvgd?
         Gradient           0.007117      0.000300      NO
         Displacement       0.181830      0.001200      NO
         Energy change     -0.007206      0.000001      NO


 New Cartesian Coordinates Obtained by Inverse Iteration

 Displacement from previous Coordinates is:  0.630917
 ----------------------------------------------------------------
             Standard Nuclear Orientation (Angstroms)
    I     Atom           X                Y                Z
 ----------------------------------------------------------------
    1      S      -0.0061987108     0.1918008795     0.0456025467
    2      C       1.7155074902     0.1483922830    -0.0287167030
    3      H       2.2915577193     0.2346094876     0.8859064593
    4      C       2.2077331494     0.0026170848    -1.3278583384
    5      H       3.2640279654    -0.0006589722    -1.5680760660
    6      C       1.1873604109    -0.1447673803    -2.2693461657
    7      H       1.3478087121    -0.2487833299    -3.3361919797
    8      C      -0.0997196696    -0.0912204940    -1.6923473245
    9      C      -1.3624591702    -0.0578984776    -2.3728012135
   10      C      -2.2631118649     1.0253529065    -2.4590192244
   11      H      -2.1115039888     1.9576908098    -1.9274847558
   12      C      -3.3229490078     0.7778889725    -3.3336103519
   13      H      -4.1156695708     1.4848558414    -3.5462361981
   14      C      -3.2547339458    -0.4952298837    -3.9044708830
   15      H      -3.9713695584    -0.9519846338    -4.5780495167
   16      S      -1.8457884504    -1.3741175235    -3.4420895553
 ----------------------------------------------------------------
 Nuclear Repulsion Energy =   627.7408870332 hartrees
 There are       43 alpha and       42 beta electrons
 Applying Cartesian multipole field
    Component          Value
    ---------          -----
     (2,0,0)        1.00000E-11
     (0,2,0)        2.00000E-11
     (0,0,2)       -3.00000E-11
 Nucleus-field energy     =    -0.0000000410 hartrees
 Requested basis set is 6-31++G(d,p)
 There are 76 shells and 234 basis functions
 A cutoff of  1.0D-12 yielded   2540 shell pairs
 There are     25040 function pairs

 Q-Chem warning in module /project/projectdirs/jcesr/qchem/qc44/cnl_qc441/compile/cori/qc_src/libqints/qchem/aobasis.C, line 68:

 Using reconstructed effective core potential

 Smallest overlap matrix eigenvalue = 9.45E-07
 Linear dependence detected in AO basis
 Number of orthogonalized atomic orbitals = 233
 Maximum deviation from orthogonality = 4.034E-11
 Guess MOs from SCF MO coefficient file
 Reading MOs from coefficient file
 Size of previous SCF MO coefficient file: 109510 (expected); 109980 (actual). 

 Q-Chem warning in module /project/projectdirs/jcesr/qchem/qc44/cnl_qc441/compile/cori/qc_src/gesman/GuessMan.C, line 722:

 Inconsistent size for SCF MO coefficient file.  Please check basis and PURECART setting.

 Reading MOs from coefficient file
 An unrestricted hybrid HF-DFT SCF calculation will be
 performed using Pulay DIIS extrapolation
 Exchange:     0.2000 Hartree-Fock + 0.0800 Slater + 0.7200 B88
 Correlation:  0.1900 VWN1RPA + 0.8100 LYP
 Using SG-1 standard quadrature grid
 SCF converges when DIIS error is below 1.0E-08
 Geometry optimization detected.  Setting ReadMinima to 0
 Setting SaveMinima to 0
 ---------------------------------------
  Cycle       Energy         DIIS Error
 ---------------------------------------
    1   -1104.5338257094      2.31E-03
    2   -1104.5532949345      1.92E-04
    3   -1104.5527810489      3.43E-04
    4   -1104.5537083489      7.05E-05
    5   -1104.5537401861      3.60E-05
    6   -1104.5537502857      1.03E-05
    7   -1104.5537515697      3.35E-06
    8   -1104.5537517837      1.30E-06
    9   -1104.5537518818      7.19E-07
   10   -1104.5537519455      5.93E-07
   11   -1104.5537519793      3.03E-07
   12   -1104.5537519988      7.65E-08
   13   -1104.5537519994      4.57E-08
   14   -1104.5537519999      1.82E-08
   15   -1104.5537520001      6.12E-09 Convergence criterion met
 ---------------------------------------
 <S^2> = 0.7634
 SCF time:  CPU 10.26 s  wall 10.09 s
 SCF   energy in the final basis set = -1104.5537520001
 Total energy in the final basis set = -1104.5537520001
 
 --------------------------------------------------------------
 
                    Orbital Energies (a.u.)
 --------------------------------------------------------------
 
 Alpha MOs
 -- Occupied --
-89.098 -89.098 -10.432 -10.432 -10.417 -10.417 -10.391 -10.391
-10.379 -10.379  -8.157  -8.157  -6.121  -6.121  -6.117  -6.117
 -6.114  -6.113  -1.083  -1.059  -0.954  -0.928  -0.922  -0.880
 -0.784  -0.750  -0.732  -0.712  -0.698  -0.648  -0.594  -0.592
 -0.585  -0.579  -0.577  -0.555  -0.550  -0.532  -0.525  -0.450
 -0.437  -0.435  -0.407
 -- Virtual --
 -0.232  -0.204  -0.160  -0.157  -0.132  -0.123  -0.121  -0.108
 -0.099  -0.095  -0.090  -0.086  -0.080  -0.077  -0.067  -0.059
 -0.044  -0.039  -0.034  -0.032  -0.018  -0.017  -0.012  -0.010
  0.001   0.003   0.005   0.009   0.014   0.015   0.020   0.023
  0.025   0.029   0.033   0.035   0.041   0.049   0.050   0.061
  0.066   0.071   0.075   0.078   0.083   0.093   0.099   0.108
  0.109   0.111   0.115   0.121   0.141   0.147   0.153   0.156
  0.172   0.175   0.195   0.210   0.224   0.230   0.237   0.253
  0.303   0.305   0.350   0.367   0.370   0.374   0.413   0.414
  0.444   0.456   0.458   0.476   0.489   0.498   0.508   0.539
  0.545   0.560   0.562   0.575   0.593   0.596   0.611   0.621
  0.634   0.640   0.659   0.665   0.710   0.733   0.756   0.760
  0.789   0.790   0.806   0.809   0.817   0.836   0.838   0.840
  0.848   0.856   0.912   0.914   0.915   0.934   0.948   0.969
  1.000   1.016   1.048   1.089   1.095   1.146   1.166   1.171
  1.180   1.181   1.220   1.266   1.281   1.299   1.365   1.369
  1.500   1.512   1.556   1.630   1.660   1.722   1.723   1.730
  1.742   1.790   1.829   1.834   1.853   1.894   1.922   1.925
  1.945   1.999   2.006   2.026   2.068   2.083   2.155   2.202
  2.203   2.247   2.253   2.284   2.297   2.320   2.328   2.332
  2.352   2.397   2.406   2.420   2.467   2.521   2.528   2.575
  2.662   2.665   2.702   2.739   2.979   3.003   3.104   3.108
  3.228   3.244   3.550   3.566   3.795   3.800   4.087   4.090
  4.130   4.146   4.246   4.335   4.487   4.529
 
 Beta MOs
 -- Occupied --
-89.098 -89.098 -10.430 -10.429 -10.413 -10.413 -10.390 -10.390
-10.379 -10.379  -8.157  -8.157  -6.121  -6.121  -6.117  -6.117
 -6.114  -6.114  -1.077  -1.054  -0.946  -0.926  -0.920  -0.870
 -0.779  -0.746  -0.728  -0.709  -0.696  -0.645  -0.589  -0.586
 -0.580  -0.577  -0.574  -0.543  -0.540  -0.530  -0.524  -0.437
 -0.433  -0.420
 -- Virtual --
 -0.341  -0.214  -0.188  -0.155  -0.153  -0.126  -0.120  -0.112
 -0.106  -0.098  -0.093  -0.089  -0.086  -0.079  -0.075  -0.066
 -0.059  -0.042  -0.038  -0.032  -0.031  -0.017  -0.016  -0.011
 -0.010   0.002   0.004   0.006   0.010   0.015   0.017   0.021
  0.024   0.026   0.030   0.033   0.037   0.042   0.050   0.052
  0.062   0.066   0.073   0.077   0.081   0.084   0.095   0.099
  0.108   0.111   0.112   0.119   0.122   0.142   0.148   0.155
  0.158   0.174   0.177   0.197   0.212   0.226   0.231   0.239
  0.257   0.305   0.307   0.353   0.368   0.370   0.374   0.415
  0.416   0.445   0.458   0.459   0.483   0.500   0.504   0.516
  0.541   0.548   0.561   0.563   0.576   0.595   0.600   0.617
  0.627   0.638   0.642   0.664   0.671   0.712   0.734   0.760
  0.766   0.792   0.792   0.808   0.812   0.819   0.839   0.840
  0.842   0.850   0.857   0.914   0.916   0.917   0.937   0.950
  0.973   1.004   1.020   1.053   1.092   1.098   1.147   1.174
  1.178   1.185   1.187   1.223   1.272   1.286   1.306   1.374
  1.375   1.512   1.525   1.566   1.635   1.665   1.724   1.728
  1.734   1.746   1.794   1.835   1.839   1.858   1.899   1.929
  1.933   1.955   2.009   2.011   2.038   2.075   2.089   2.161
  2.205   2.207   2.249   2.258   2.289   2.298   2.324   2.333
  2.336   2.356   2.401   2.410   2.425   2.471   2.525   2.532
  2.580   2.665   2.668   2.704   2.741   2.980   3.004   3.105
  3.108   3.230   3.246   3.551   3.568   3.795   3.801   4.094
  4.097   4.133   4.149   4.252   4.342   4.490   4.533
 --------------------------------------------------------------
 
          Ground-State Mulliken Net Atomic Charges

     Atom                 Charge (a.u.)    Spin (a.u.)
  --------------------------------------------------------
      1 S                     0.178026      -0.054214
      2 C                     0.068469       0.310137
      3 H                     0.247039      -0.014732
      4 C                    -0.377116      -0.019639
      5 H                     0.172162       0.000941
      6 C                     0.268181       0.119804
      7 H                     0.181546      -0.007242
      8 C                    -0.238691       0.165095
      9 C                    -0.235562       0.164397
     10 C                     0.266361       0.120208
     11 H                     0.181554      -0.007195
     12 C                    -0.377088      -0.019617
     13 H                     0.172079       0.000932
     14 C                     0.067738       0.309965
     15 H                     0.246965      -0.014732
     16 S                     0.178337      -0.054109
  --------------------------------------------------------
  Sum of atomic charges =     1.000000
  Sum of spin   charges =     1.000000

 -----------------------------------------------------------------
                    Cartesian Multipole Moments
 -----------------------------------------------------------------
    Charge (ESU x 10^10)
                 4.8032
    Dipole Moment (Debye)
         X      -3.2175      Y       0.4373      Z     -10.2701
       Tot      10.7712
    Quadrupole Moments (Debye-Ang)
        XX     -33.3059     XY      -1.2612     YY     -65.7637
        XZ      24.7191     YZ       3.2215     ZZ     -30.1411
    Octopole Moments (Debye-Ang^2)
       XXX      93.6930    XXY      13.4367    XYY      32.9058
       YYY      24.7223    XXZ      27.4861    XYZ      -2.6968
       YYZ     124.8476    XZZ     -44.3824    YZZ     -12.6012
       ZZZ     281.2156
    Hexadecapole Moments (Debye-Ang^3)
      XXXX   -1246.4363   XXXY     -54.7292   XXYY    -286.8072
      XYYY     -46.3842   YYYY    -292.7865   XXXZ    -339.8381
      XXYZ     -32.8128   XYYZ    -176.7539   YYYZ    -128.8405
      XXZZ    -258.6185   XYZZ      33.1166   YYZZ    -432.5284
      XZZZ    -288.7758   YZZZ     -21.4965   ZZZZ   -2078.9009
 -----------------------------------------------------------------
 Calculating analytic gradient of the SCF energy
 Gradient of SCF Energy
            1           2           3           4           5           6
    1  -0.0033705  -0.0000907  -0.0001646   0.0005831  -0.0001946   0.0010823
    2  -0.0014465  -0.0031757   0.0010287   0.0006507  -0.0005146   0.0101817
    3   0.0027412   0.0002636   0.0005164  -0.0023351  -0.0005234  -0.0018411
            7           8           9          10          11          12
    1   0.0006383   0.0052739  -0.0090178   0.0045765  -0.0001178   0.0005329
    2   0.0009333  -0.0097409  -0.0001752   0.0049482   0.0004814   0.0023705
    3   0.0000831  -0.0000377   0.0064971  -0.0079134  -0.0010028   0.0003252
           13          14          15          16
    1   0.0000680  -0.0014337   0.0004618   0.0011729
    2   0.0001877  -0.0011534  -0.0002416  -0.0043345
    3   0.0007340   0.0025839  -0.0010286   0.0009375
 Max gradient component =       1.018E-02
 RMS gradient           =       3.365E-03
 Gradient time:  CPU 1.88 s  wall 1.90 s
 Geometry Optimization Parameters
   NAtoms,    NIC,     NZ,  NCons,   NDum,   NFix, NCnnct, MaxDiis
       16     111       0       1       0       0       0       0

 Cartesian Hessian Update
 Hessian Updated using BFGS Update


** CONSTRAINED OPTIMIZATION IN DELOCALIZED INTERNAL COORDINATES **
   Searching for a Minimum

   Optimization Cycle:   3

                       Coordinates (Angstroms)
     ATOM                X               Y               Z
      1  S        -0.0061987108    0.1918008795    0.0456025467
      2  C         1.7155074902    0.1483922830   -0.0287167030
      3  H         2.2915577193    0.2346094876    0.8859064593
      4  C         2.2077331494    0.0026170848   -1.3278583384
      5  H         3.2640279654   -0.0006589722   -1.5680760660
      6  C         1.1873604109   -0.1447673803   -2.2693461657
      7  H         1.3478087121   -0.2487833299   -3.3361919797
      8  C        -0.0997196696   -0.0912204940   -1.6923473245
      9  C        -1.3624591702   -0.0578984776   -2.3728012135
     10  C        -2.2631118649    1.0253529065   -2.4590192244
     11  H        -2.1115039888    1.9576908098   -1.9274847558
     12  C        -3.3229490078    0.7778889725   -3.3336103519
     13  H        -4.1156695708    1.4848558414   -3.5462361981
     14  C        -3.2547339458   -0.4952298837   -3.9044708830
     15  H        -3.9713695584   -0.9519846338   -4.5780495167
     16  S        -1.8457884504   -1.3741175235   -3.4420895553
   Point Group: c1    Number of degrees of freedom:    42


   Energy is  -1104.553752000

              Constraints and their Current Values
                                        Value     Constraint
   Dihedral:        6   8   9  10     -110.000     -110.000
 Hessian Updated using BFGS Update

 41 Hessian modes will be used to form the next step
  Hessian Eigenvalues:
     0.015662    0.045000    0.045000    0.045000    0.045000    0.045002
     0.045002    0.045004    0.045011    0.045012    0.045012    0.050339
     0.159740    0.159947    0.159963    0.159992    0.160000    0.160493
     0.221283    0.222359    0.237837    0.249994    0.251848    0.282801
     0.294451    0.297657    0.312224    0.312642    0.354773    0.354940
     0.355129    0.355211    0.358272    0.358720    0.376419    0.404882
     0.423789    0.461885    0.463582    0.497933    0.549584

 Minimum Search - Taking Simple RFO Step
 Searching for Lamda that Minimizes Along All modes
 Value Taken    Lamda =  -0.00351210
 Calculated Step too Large.  Step scaled by  0.720952
 Step Taken.  Stepsize is  0.300000

                             Maximum     Tolerance    Cnvgd?
         Gradient           0.005969      0.000300      NO
         Displacement       0.220858      0.001200      NO
         Energy change     -0.003218      0.000001      NO


 New Cartesian Coordinates Obtained by Inverse Iteration

 Displacement from previous Coordinates is:  0.742213
 ----------------------------------------------------------------
             Standard Nuclear Orientation (Angstroms)
    I     Atom           X                Y                Z
 ----------------------------------------------------------------
    1      S       0.0062922488     0.2448854510     0.0509325412
    2      C       1.7210371623     0.2353508566    -0.0533475663
    3      H       2.3165449671     0.3804306730     0.8407716416
    4      C       2.1912222472     0.0051517447    -1.3498815209
    5      H       3.2436094823     0.0131098562    -1.6066436854
    6      C       1.1583847168    -0.2265602008    -2.2555947648
    7      H       1.2952627522    -0.3941136813    -3.3177326202
    8      C      -0.1250337857    -0.1659128935    -1.6587933604
    9      C      -1.3873502191    -0.1199788936    -2.3200109805
   10      C      -2.2817818606     0.9762728320    -2.3888330439
   11      H      -2.1418278527     1.8749291901    -1.7990476474
   12      C      -3.3014064635     0.7889973418    -3.3194961060
   13      H      -4.0804502497     1.5112613266    -3.5312680245
   14      C      -3.2111012734    -0.4472171024    -3.9667192389
   15      H      -3.9099549788    -0.8604143517    -4.6850911696
   16      S      -1.8329553833    -1.3576445786    -3.4940337238
 ----------------------------------------------------------------
 Nuclear Repulsion Energy =   628.6629967150 hartrees
 There are       43 alpha and       42 beta electrons
 Applying Cartesian multipole field
    Component          Value
    ---------          -----
     (2,0,0)        1.00000E-11
     (0,2,0)        2.00000E-11
     (0,0,2)       -3.00000E-11
 Nucleus-field energy     =    -0.0000000417 hartrees
 Requested basis set is 6-31++G(d,p)
 There are 76 shells and 234 basis functions
 A cutoff of  1.0D-12 yielded   2544 shell pairs
 There are     25084 function pairs

 Q-Chem warning in module /project/projectdirs/jcesr/qchem/qc44/cnl_qc441/compile/cori/qc_src/libqints/qchem/aobasis.C, line 68:

 Using reconstructed effective core potential

 Smallest overlap matrix eigenvalue = 1.17E-06
 No. of orbitals has changed due to linear dependencies.  Generating new SCF guess.
 Guess from superposition of atomic densities
 Warning:  Energy on first SCF cycle will be non-variational
 An unrestricted hybrid HF-DFT SCF calculation will be
 performed using Pulay DIIS extrapolation
 Exchange:     0.2000 Hartree-Fock + 0.0800 Slater + 0.7200 B88
 Correlation:  0.1900 VWN1RPA + 0.8100 LYP
 Using SG-1 standard quadrature grid
 SCF converges when DIIS error is below 1.0E-08
 Geometry optimization detected.  Setting ReadMinima to 0
 Setting SaveMinima to 0
 Inaccurate integrated density:
   Number of electrons =    85
   Numerical integral  =    85.999694189954
   Relative error      =     1.1761108117 %
 ---------------------------------------
  Cycle       Energy         DIIS Error
 ---------------------------------------
    1   -1107.1189856077      4.36E-02
    2   -1104.4284054414      3.99E-03
    3   -1104.1602845298      6.86E-03
    4   -1104.5436117510      1.18E-03
    5   -1104.5513666558      6.79E-04
    6   -1104.5552222238      1.81E-04
    7   -1104.5555229846      6.30E-05
    8   -1104.5555826013      2.08E-05
    9   -1104.5556026911      1.48E-05
   10   -1104.5556191437      6.22E-06
   11   -1104.5556291215      3.55E-06
   12   -1104.5556310523      2.41E-06
   13   -1104.5556314865      8.72E-07
   14   -1104.5556315664      2.39E-07
   15   -1104.5556315726      1.14E-07
   16   -1104.5556315729      2.79E-08
   17   -1104.5556315735      1.39E-08
   18   -1104.5556315729      3.53E-09 Convergence criterion met
 ---------------------------------------
 <S^2> = 0.7644
 SCF time:  CPU 12.16 s  wall 11.65 s
 SCF   energy in the final basis set = -1104.5556315729
 Total energy in the final basis set = -1104.5556315729
 
 --------------------------------------------------------------
 
                    Orbital Energies (a.u.)
 --------------------------------------------------------------
 
 Alpha MOs
 -- Occupied --
-89.098 -89.098 -10.432 -10.432 -10.417 -10.417 -10.392 -10.392
-10.379 -10.379  -8.157  -8.157  -6.121  -6.121  -6.117  -6.117
 -6.114  -6.114  -1.085  -1.060  -0.956  -0.930  -0.922  -0.880
 -0.785  -0.752  -0.731  -0.712  -0.698  -0.650  -0.596  -0.593
 -0.586  -0.579  -0.579  -0.556  -0.550  -0.532  -0.524  -0.455
 -0.437  -0.436  -0.404
 -- Virtual --
 -0.235  -0.201  -0.159  -0.157  -0.133  -0.123  -0.122  -0.109
 -0.099  -0.096  -0.090  -0.086  -0.080  -0.077  -0.068  -0.061
 -0.044  -0.039  -0.036  -0.029  -0.019  -0.018  -0.009  -0.009
  0.001   0.001   0.005   0.009   0.012   0.014   0.020   0.023
  0.025   0.029   0.034   0.035   0.042   0.045   0.049   0.060
  0.068   0.071   0.075   0.078   0.085   0.094   0.100   0.106
  0.107   0.110   0.115   0.121   0.138   0.150   0.152   0.155
  0.170   0.174   0.188   0.196   0.209   0.224   0.230   0.237
  0.269   0.304   0.305   0.352   0.367   0.377   0.379   0.406
  0.412   0.446   0.456   0.465   0.472   0.497   0.499   0.504
  0.538   0.542   0.560   0.563   0.582   0.592   0.596   0.608
  0.617   0.634   0.647   0.660   0.663   0.708   0.740   0.750
  0.766   0.787   0.799   0.807   0.821   0.826   0.832   0.841
  0.847   0.859   0.864   0.912   0.915   0.918   0.930   0.946
  0.980   1.013   1.017   1.055   1.081   1.097   1.148   1.165
  1.167   1.174   1.182   1.215   1.255   1.277   1.304   1.366
  1.392   1.488   1.515   1.544   1.640   1.658   1.718   1.727
  1.731   1.745   1.788   1.825   1.834   1.849   1.894   1.917
  1.924   1.953   1.995   1.996   2.031   2.068   2.075   2.161
  2.203   2.203   2.242   2.257   2.285   2.299   2.320   2.327
  2.341   2.354   2.397   2.407   2.430   2.469   2.517   2.528
  2.574   2.657   2.664   2.704   2.741   2.979   3.003   3.107
  3.108   3.228   3.241   3.548   3.568   3.797   3.803   4.088
  4.092   4.134   4.147   4.243   4.339   4.488   4.526
 
 Beta MOs
 -- Occupied --
-89.098 -89.098 -10.430 -10.429 -10.413 -10.413 -10.391 -10.391
-10.379 -10.379  -8.157  -8.157  -6.121  -6.121  -6.117  -6.117
 -6.114  -6.114  -1.079  -1.054  -0.948  -0.927  -0.920  -0.869
 -0.780  -0.748  -0.726  -0.709  -0.696  -0.647  -0.590  -0.588
 -0.582  -0.576  -0.575  -0.544  -0.541  -0.531  -0.522  -0.437
 -0.434  -0.425
 -- Virtual --
 -0.338  -0.216  -0.185  -0.154  -0.153  -0.127  -0.119  -0.112
 -0.107  -0.098  -0.094  -0.089  -0.085  -0.079  -0.075  -0.067
 -0.060  -0.042  -0.038  -0.034  -0.028  -0.019  -0.018  -0.009
 -0.008   0.001   0.002   0.006   0.010   0.014   0.016   0.021
  0.023   0.026   0.031   0.035   0.035   0.043   0.046   0.050
  0.061   0.068   0.072   0.077   0.080   0.087   0.096   0.101
  0.108   0.108   0.110   0.118   0.122   0.139   0.151   0.154
  0.157   0.171   0.176   0.190   0.198   0.211   0.225   0.232
  0.239   0.272   0.305   0.307   0.354   0.368   0.377   0.380
  0.408   0.414   0.447   0.458   0.467   0.478   0.504   0.508
  0.513   0.540   0.544   0.561   0.564   0.584   0.597   0.599
  0.612   0.623   0.639   0.649   0.665   0.669   0.711   0.741
  0.754   0.772   0.788   0.801   0.809   0.823   0.830   0.834
  0.843   0.849   0.861   0.865   0.914   0.916   0.919   0.932
  0.948   0.985   1.018   1.020   1.060   1.084   1.100   1.150
  1.171   1.173   1.180   1.188   1.218   1.262   1.282   1.311
  1.372   1.400   1.499   1.528   1.555   1.645   1.663   1.726
  1.728   1.733   1.749   1.791   1.830   1.839   1.854   1.901
  1.922   1.934   1.962   1.999   2.007   2.045   2.074   2.082
  2.167   2.206   2.206   2.245   2.263   2.289   2.300   2.325
  2.332   2.345   2.357   2.402   2.411   2.435   2.472   2.521
  2.532   2.579   2.660   2.667   2.706   2.744   2.981   3.005
  3.107   3.109   3.229   3.242   3.550   3.569   3.797   3.803
  4.094   4.099   4.137   4.150   4.250   4.346   4.491   4.530
 --------------------------------------------------------------
 
          Ground-State Mulliken Net Atomic Charges

     Atom                 Charge (a.u.)    Spin (a.u.)
  --------------------------------------------------------
      1 S                     0.171969      -0.054242
      2 C                     0.079980       0.316877
      3 H                     0.249114      -0.015645
      4 C                    -0.379420      -0.027553
      5 H                     0.171172       0.001430
      6 C                     0.227269       0.139177
      7 H                     0.180445      -0.008219
      8 C                    -0.201550       0.148741
      9 C                    -0.197544       0.147144
     10 C                     0.225948       0.139602
     11 H                     0.180276      -0.008159
     12 C                    -0.380462      -0.027579
     13 H                     0.171089       0.001419
     14 C                     0.080927       0.316769
     15 H                     0.249050      -0.015657
     16 S                     0.171737      -0.054106
  --------------------------------------------------------
  Sum of atomic charges =     1.000000
  Sum of spin   charges =     1.000000

 -----------------------------------------------------------------
                    Cartesian Multipole Moments
 -----------------------------------------------------------------
    Charge (ESU x 10^10)
                 4.8032
    Dipole Moment (Debye)
         X      -3.1798      Y       0.5386      Z     -10.3355
       Tot      10.8270
    Quadrupole Moments (Debye-Ang)
        XX     -33.8560     XY      -1.3790     YY     -65.9912
        XZ      24.7157     YZ       3.6993     ZZ     -29.4808
    Octopole Moments (Debye-Ang^2)
       XXX      96.6293    XXY      15.7347    XYY      34.3870
       YYY      23.8970    XXZ      29.1720    XYZ      -0.9560
       YYZ     126.5442    XZZ     -47.0506    YZZ     -13.9358
       ZZZ     274.6471
    Hexadecapole Moments (Debye-Ang^3)
      XXXX   -1247.9993   XXXY     -59.1182   XXYY    -286.4328
      XYYY     -46.3806   YYYY    -292.7426   XXXZ    -348.7012
      XXYZ     -40.5874   XYYZ    -181.5053   YYYZ    -138.0407
      XXZZ    -257.1579   XYZZ      29.1071   YYZZ    -438.7539
      XZZZ    -264.4521   YZZZ     -23.6880   ZZZZ   -2049.5896
 -----------------------------------------------------------------
 Calculating analytic gradient of the SCF energy
 Gradient of SCF Energy
            1           2           3           4           5           6
    1  -0.0004582  -0.0015880   0.0000519  -0.0003023  -0.0000291   0.0037372
    2  -0.0001458  -0.0012362   0.0000851  -0.0000360  -0.0000874   0.0110607
    3   0.0005249   0.0020526   0.0002046  -0.0038464   0.0000848  -0.0005264
            7           8           9          10          11          12
    1  -0.0000847   0.0002057  -0.0059347   0.0024190   0.0004628   0.0014014
    2   0.0008420  -0.0137613  -0.0015993   0.0053629   0.0002301   0.0030339
    3  -0.0000409  -0.0026936   0.0125938  -0.0100926  -0.0006318   0.0019001
           13          14          15          16
    1  -0.0000490   0.0001261  -0.0000842   0.0001262
    2  -0.0001173  -0.0028463  -0.0001412  -0.0006438
    3   0.0000553   0.0005345  -0.0001563   0.0000373
 Max gradient component =       1.376E-02
 RMS gradient           =       3.859E-03
 Gradient time:  CPU 1.90 s  wall 1.92 s
 Geometry Optimization Parameters
   NAtoms,    NIC,     NZ,  NCons,   NDum,   NFix, NCnnct, MaxDiis
       16     111       0       1       0       0       0       0

 Cartesian Hessian Update
 Hessian Updated using BFGS Update


** CONSTRAINED OPTIMIZATION IN DELOCALIZED INTERNAL COORDINATES **
   Searching for a Minimum

   Optimization Cycle:   4

                       Coordinates (Angstroms)
     ATOM                X               Y               Z
      1  S         0.0062922488    0.2448854510    0.0509325412
      2  C         1.7210371623    0.2353508566   -0.0533475663
      3  H         2.3165449671    0.3804306730    0.8407716416
      4  C         2.1912222472    0.0051517447   -1.3498815209
      5  H         3.2436094823    0.0131098562   -1.6066436854
      6  C         1.1583847168   -0.2265602008   -2.2555947648
      7  H         1.2952627522   -0.3941136813   -3.3177326202
      8  C        -0.1250337857   -0.1659128935   -1.6587933604
      9  C        -1.3873502191   -0.1199788936   -2.3200109805
     10  C        -2.2817818606    0.9762728320   -2.3888330439
     11  H        -2.1418278527    1.8749291901   -1.7990476474
     12  C        -3.3014064635    0.7889973418   -3.3194961060
     13  H        -4.0804502497    1.5112613266   -3.5312680245
     14  C        -3.2111012734   -0.4472171024   -3.9667192389
     15  H        -3.9099549788   -0.8604143517   -4.6850911696
     16  S        -1.8329553833   -1.3576445786   -3.4940337238
   Point Group: c1    Number of degrees of freedom:    42


   Energy is  -1104.555631573

              Constraints and their Current Values
                                        Value     Constraint
   Dihedral:        6   8   9  10     -110.000     -110.000
 Hessian Updated using BFGS Update

 41 Hessian modes will be used to form the next step
  Hessian Eigenvalues:
     0.014002    0.045000    0.045000    0.045000    0.045001    0.045002
     0.045002    0.045004    0.045011    0.045012    0.045256    0.050233
     0.159910    0.159947    0.159964    0.159992    0.160000    0.162018
     0.221283    0.222404    0.237840    0.249993    0.251345    0.283040
     0.294460    0.298076    0.312566    0.322551    0.354776    0.354973
     0.355129    0.355242    0.358272    0.358685    0.379845    0.404882
     0.422316    0.462358    0.463582    0.497934    0.537959

 Minimum Search - Taking Simple RFO Step
 Searching for Lamda that Minimizes Along All modes
 Value Taken    Lamda =  -0.00114103
 Step Taken.  Stepsize is  0.261343

                             Maximum     Tolerance    Cnvgd?
         Gradient           0.003296      0.000300      NO
         Displacement       0.207100      0.001200      NO
         Energy change     -0.001880      0.000001      NO


 New Cartesian Coordinates Obtained by Inverse Iteration

 Displacement from previous Coordinates is:  0.705913
 ----------------------------------------------------------------
             Standard Nuclear Orientation (Angstroms)
    I     Atom           X                Y                Z
 ----------------------------------------------------------------
    1      S       0.0141450906     0.2827824837     0.0535709002
    2      C       1.7238880687     0.3158978515    -0.0845546056
    3      H       2.3341628248     0.5243278944     0.7865428355
    4      C       2.1744819674     0.0065973276    -1.3697131704
    5      H       3.2215053145     0.0245591212    -1.6471444736
    6      C       1.1305007578    -0.3015141390    -2.2395351767
    7      H       1.2522897399    -0.5303945362    -3.2922307677
    8      C      -0.1464323944    -0.2348701132    -1.6261376065
    9      C      -1.4126045865    -0.1776947667    -2.2725887845
   10      C      -2.2989710558     0.9277905906    -2.3255008832
   11      H      -2.1779182579     1.7935303923    -1.6842374104
   12      C      -3.2809100088     0.7977938347    -3.3054393112
   13      H      -4.0443405105     1.5376537369    -3.5133629350
   14      C      -3.1662448047    -0.3969166526    -4.0196477815
   15      H      -3.8402307089    -0.7653173399    -4.7843319624
   16      S      -1.8228299261    -1.3456781154    -3.5304781369
 ----------------------------------------------------------------
 Nuclear Repulsion Energy =   629.4594052550 hartrees
 There are       43 alpha and       42 beta electrons
 Applying Cartesian multipole field
    Component          Value
    ---------          -----
     (2,0,0)        1.00000E-11
     (0,2,0)        2.00000E-11
     (0,0,2)       -3.00000E-11
 Nucleus-field energy     =    -0.0000000421 hartrees
 Requested basis set is 6-31++G(d,p)
 There are 76 shells and 234 basis functions
 A cutoff of  1.0D-12 yielded   2548 shell pairs
 There are     25098 function pairs

 Q-Chem warning in module /project/projectdirs/jcesr/qchem/qc44/cnl_qc441/compile/cori/qc_src/libqints/qchem/aobasis.C, line 68:

 Using reconstructed effective core potential

 Smallest overlap matrix eigenvalue = 1.62E-06
 Guess MOs from SCF MO coefficient file
 Reading MOs from coefficient file
 Reading MOs from coefficient file
 An unrestricted hybrid HF-DFT SCF calculation will be
 performed using Pulay DIIS extrapolation
 Exchange:     0.2000 Hartree-Fock + 0.0800 Slater + 0.7200 B88
 Correlation:  0.1900 VWN1RPA + 0.8100 LYP
 Using SG-1 standard quadrature grid
 SCF converges when DIIS error is below 1.0E-08
 Geometry optimization detected.  Setting ReadMinima to 0
 Setting SaveMinima to 0
 ---------------------------------------
  Cycle       Energy         DIIS Error
 ---------------------------------------
    1   -1104.5433591074      2.31E-03
    2   -1104.5551360274      3.32E-04
    3   -1104.5521252281      7.02E-04
    4   -1104.5561798021      8.55E-05
    5   -1104.5562265791      4.13E-05
    6   -1104.5562400846      9.85E-06
    7   -1104.5562411001      2.95E-06
    8   -1104.5562412262      1.14E-06
    9   -1104.5562412681      4.75E-07
   10   -1104.5562412987      3.12E-07
   11   -1104.5562413057      2.16E-07
   12   -1104.5562413127      7.60E-08
   13   -1104.5562413130      2.99E-08
   14   -1104.5562413131      1.19E-08
   15   -1104.5562413125      4.93E-09 Convergence criterion met
 ---------------------------------------
 <S^2> = 0.7649
 SCF time:  CPU 9.97 s  wall 9.79 s
 SCF   energy in the final basis set = -1104.5562413125
 Total energy in the final basis set = -1104.5562413125
 
 --------------------------------------------------------------
 
                    Orbital Energies (a.u.)
 --------------------------------------------------------------
 
 Alpha MOs
 -- Occupied --
-89.097 -89.097 -10.433 -10.433 -10.417 -10.417 -10.394 -10.394
-10.379 -10.379  -8.156  -8.156  -6.121  -6.121  -6.117  -6.116
 -6.113  -6.113  -1.086  -1.060  -0.957  -0.930  -0.922  -0.880
 -0.786  -0.753  -0.730  -0.712  -0.699  -0.651  -0.597  -0.594
 -0.587  -0.581  -0.579  -0.556  -0.550  -0.532  -0.522  -0.459
 -0.437  -0.437  -0.402
 -- Virtual --
 -0.238  -0.199  -0.157  -0.156  -0.133  -0.123  -0.123  -0.110
 -0.099  -0.097  -0.090  -0.085  -0.081  -0.077  -0.068  -0.062
 -0.044  -0.038  -0.037  -0.027  -0.021  -0.019  -0.008  -0.007
  0.000   0.001   0.006   0.009   0.011   0.014   0.021   0.023
  0.025   0.029   0.033   0.037   0.042   0.043   0.048   0.059
  0.069   0.072   0.076   0.078   0.089   0.093   0.102   0.104
  0.104   0.110   0.115   0.122   0.136   0.148   0.153   0.157
  0.168   0.172   0.189   0.195   0.207   0.222   0.228   0.237
  0.263   0.304   0.306   0.352   0.363   0.381   0.387   0.403
  0.412   0.448   0.455   0.466   0.467   0.497   0.499   0.503
  0.530   0.536   0.559   0.562   0.576   0.592   0.594   0.609
  0.611   0.634   0.654   0.661   0.662   0.707   0.741   0.746
  0.763   0.782   0.803   0.811   0.818   0.823   0.825   0.841
  0.852   0.862   0.863   0.912   0.915   0.919   0.929   0.939
  0.981   1.006   1.009   1.059   1.073   1.101   1.146   1.160
  1.163   1.164   1.183   1.200   1.244   1.283   1.312   1.360
  1.410   1.476   1.516   1.539   1.648   1.658   1.713   1.724
  1.732   1.746   1.784   1.819   1.836   1.838   1.893   1.907
  1.928   1.957   1.981   1.995   2.038   2.068   2.071   2.163
  2.201   2.204   2.238   2.262   2.283   2.300   2.318   2.327
  2.342   2.354   2.397   2.408   2.430   2.471   2.511   2.527
  2.572   2.652   2.663   2.706   2.740   2.979   3.003   3.106
  3.108   3.227   3.239   3.546   3.565   3.798   3.802   4.087
  4.090   4.136   4.148   4.240   4.337   4.488   4.522
 
 Beta MOs
 -- Occupied --
-89.098 -89.097 -10.431 -10.430 -10.413 -10.413 -10.392 -10.392
-10.379 -10.379  -8.157  -8.156  -6.121  -6.121  -6.117  -6.117
 -6.114  -6.114  -1.080  -1.055  -0.950  -0.928  -0.920  -0.870
 -0.781  -0.749  -0.725  -0.709  -0.697  -0.648  -0.591  -0.589
 -0.583  -0.576  -0.576  -0.545  -0.541  -0.530  -0.520  -0.437
 -0.434  -0.428
 -- Virtual --
 -0.336  -0.218  -0.182  -0.153  -0.153  -0.127  -0.119  -0.112
 -0.109  -0.098  -0.095  -0.089  -0.085  -0.080  -0.075  -0.068
 -0.061  -0.042  -0.037  -0.036  -0.026  -0.021  -0.018  -0.008
 -0.006   0.001   0.002   0.007   0.011   0.012   0.016   0.021
  0.024   0.027   0.030   0.034   0.038   0.044   0.044   0.049
  0.060   0.070   0.073   0.078   0.080   0.091   0.095   0.102
  0.105   0.105   0.111   0.118   0.122   0.137   0.149   0.154
  0.159   0.169   0.174   0.191   0.198   0.209   0.224   0.229
  0.240   0.265   0.305   0.308   0.355   0.364   0.380   0.387
  0.405   0.414   0.449   0.457   0.468   0.474   0.505   0.507
  0.510   0.532   0.538   0.560   0.564   0.579   0.597   0.598
  0.612   0.616   0.639   0.656   0.666   0.667   0.709   0.742
  0.750   0.768   0.784   0.806   0.812   0.820   0.825   0.827
  0.843   0.854   0.863   0.864   0.913   0.917   0.919   0.932
  0.940   0.986   1.010   1.013   1.064   1.076   1.104   1.150
  1.163   1.168   1.173   1.190   1.203   1.251   1.288   1.320
  1.365   1.418   1.486   1.530   1.550   1.651   1.663   1.722
  1.726   1.734   1.749   1.787   1.825   1.841   1.844   1.901
  1.913   1.937   1.965   1.987   2.006   2.052   2.073   2.076
  2.169   2.205   2.207   2.240   2.268   2.287   2.301   2.323
  2.332   2.346   2.357   2.402   2.412   2.435   2.474   2.516
  2.531   2.578   2.655   2.665   2.708   2.743   2.981   3.005
  3.106   3.109   3.228   3.240   3.548   3.567   3.798   3.802
  4.093   4.097   4.140   4.151   4.247   4.345   4.491   4.526
 --------------------------------------------------------------
 
          Ground-State Mulliken Net Atomic Charges

     Atom                 Charge (a.u.)    Spin (a.u.)
  --------------------------------------------------------
      1 S                     0.177600      -0.056184
      2 C                     0.083588       0.318700
      3 H                     0.251028      -0.015862
      4 C                    -0.381367      -0.030730
      5 H                     0.171457       0.001607
      6 C                     0.160918       0.144056
      7 H                     0.176020      -0.009026
      8 C                    -0.139310       0.148132
      9 C                    -0.137728       0.146223
     10 C                     0.159842       0.144278
     11 H                     0.175616      -0.008969
     12 C                    -0.382693      -0.030686
     13 H                     0.171387       0.001595
     14 C                     0.084696       0.318733
     15 H                     0.250905      -0.015891
     16 S                     0.178041      -0.055977
  --------------------------------------------------------
  Sum of atomic charges =     1.000000
  Sum of spin   charges =     1.000000

 -----------------------------------------------------------------
                    Cartesian Multipole Moments
 -----------------------------------------------------------------
    Charge (ESU x 10^10)
                 4.8032
    Dipole Moment (Debye)
         X      -3.1430      Y       0.6378      Z     -10.4004
       Tot      10.8836
    Quadrupole Moments (Debye-Ang)
        XX     -34.4213     XY      -1.5122     YY     -66.1165
        XZ      24.5631     YZ       4.0047     ZZ     -28.9764
    Octopole Moments (Debye-Ang^2)
       XXX      99.8810    XXY      18.3159    XYY      35.9284
       YYY      23.6266    XXZ      30.9987    XYZ       0.9933
       YYZ     127.9015    XZZ     -48.9944    YZZ     -14.3050
       ZZZ     268.5614
    Hexadecapole Moments (Debye-Ang^3)
      XXXX   -1251.4469   XXXY     -64.0936   XXYY    -285.6514
      XYYY     -46.6494   YYYY    -294.3116   XXXZ    -359.1294
      XXYZ     -48.7003   XYYZ    -185.3374   YYYZ    -145.3878
      XXZZ    -257.4500   XYZZ      23.1146   YYZZ    -443.7016
      XZZZ    -242.2903   YZZZ     -28.5032   ZZZZ   -2016.1885
 -----------------------------------------------------------------
 Calculating analytic gradient of the SCF energy
 Gradient of SCF Energy
            1           2           3           4           5           6
    1   0.0009736  -0.0013286   0.0001916  -0.0002701   0.0000349   0.0031927
    2   0.0003238   0.0007163  -0.0004566  -0.0004978   0.0002189   0.0118523
    3  -0.0009532   0.0013823   0.0000654  -0.0019590   0.0003193   0.0000560
            7           8           9          10          11          12
    1  -0.0004262  -0.0005453  -0.0063905   0.0031041   0.0006396   0.0005754
    2   0.0005311  -0.0172795  -0.0010324   0.0048673   0.0000695   0.0013585
    3  -0.0001474  -0.0048589   0.0166598  -0.0108483  -0.0002122   0.0014411
           13          14          15          16
    1  -0.0000275   0.0009464  -0.0003998  -0.0002703
    2  -0.0001884  -0.0016614  -0.0000871   0.0012654
    3  -0.0003217  -0.0008825   0.0003179  -0.0000586
 Max gradient component =       1.728E-02
 RMS gradient           =       4.486E-03
 Gradient time:  CPU 2.60 s  wall 2.58 s
 Geometry Optimization Parameters
   NAtoms,    NIC,     NZ,  NCons,   NDum,   NFix, NCnnct, MaxDiis
       16     111       0       1       0       0       0       0

 Cartesian Hessian Update
 Hessian Updated using BFGS Update


** CONSTRAINED OPTIMIZATION IN DELOCALIZED INTERNAL COORDINATES **
   Searching for a Minimum

   Optimization Cycle:   5

                       Coordinates (Angstroms)
     ATOM                X               Y               Z
      1  S         0.0141450906    0.2827824837    0.0535709002
      2  C         1.7238880687    0.3158978515   -0.0845546056
      3  H         2.3341628248    0.5243278944    0.7865428355
      4  C         2.1744819674    0.0065973276   -1.3697131704
      5  H         3.2215053145    0.0245591212   -1.6471444736
      6  C         1.1305007578   -0.3015141390   -2.2395351767
      7  H         1.2522897399   -0.5303945362   -3.2922307677
      8  C        -0.1464323944   -0.2348701132   -1.6261376065
      9  C        -1.4126045865   -0.1776947667   -2.2725887845
     10  C        -2.2989710558    0.9277905906   -2.3255008832
     11  H        -2.1779182579    1.7935303923   -1.6842374104
     12  C        -3.2809100088    0.7977938347   -3.3054393112
     13  H        -4.0443405105    1.5376537369   -3.5133629350
     14  C        -3.1662448047   -0.3969166526   -4.0196477815
     15  H        -3.8402307089   -0.7653173399   -4.7843319624
     16  S        -1.8228299261   -1.3456781154   -3.5304781369
   Point Group: c1    Number of degrees of freedom:    42


   Energy is  -1104.556241312

              Constraints and their Current Values
                                        Value     Constraint
   Dihedral:        6   8   9  10     -110.000     -110.000
 Hessian Updated using BFGS Update

 41 Hessian modes will be used to form the next step
  Hessian Eigenvalues:
     0.015155    0.045000    0.045000    0.045000    0.045001    0.045002
     0.045003    0.045004    0.045012    0.045021    0.045609    0.049077
     0.159945    0.159947    0.159970    0.159992    0.160001    0.162165
     0.221283    0.222415    0.237842    0.249982    0.250337    0.283274
     0.294460    0.298406    0.312575    0.324543    0.354776    0.354963
     0.355129    0.355221    0.358272    0.358641    0.379411    0.404882
     0.421984    0.462144    0.463587    0.497933    0.515824

 Minimum Search - Taking Simple RFO Step
 Searching for Lamda that Minimizes Along All modes
 Value Taken    Lamda =  -0.00007091
 Step Taken.  Stepsize is  0.030445

                             Maximum     Tolerance    Cnvgd?
         Gradient           0.002515      0.000300      NO
         Displacement       0.017574      0.001200      NO
         Energy change     -0.000610      0.000001      NO


 New Cartesian Coordinates Obtained by Inverse Iteration

 Displacement from previous Coordinates is:  0.061085
 ----------------------------------------------------------------
             Standard Nuclear Orientation (Angstroms)
    I     Atom           X                Y                Z
 ----------------------------------------------------------------
    1      S       0.0145551416     0.2815370902     0.0551026769
    2      C       1.7250325742     0.3212438019    -0.0872646908
    3      H       2.3351863835     0.5391481435     0.7814988818
    4      C       2.1736680398     0.0067393951    -1.3704285178
    5      H       3.2197654593     0.0243878378    -1.6515325545
    6      C       1.1283474349    -0.3064935091    -2.2384390789
    7      H       1.2523231704    -0.5430108199    -3.2891814957
    8      C      -0.1464874053    -0.2390643667    -1.6248000770
    9      C      -1.4148436293    -0.1802502614    -2.2698362382
   10      C      -2.2998068663     0.9242706768    -2.3211572362
   11      H      -2.1845703530     1.7873217559    -1.6752858967
   12      C      -3.2799412219     0.7980876336    -3.3048481355
   13      H      -4.0416236111     1.5404415792    -3.5104955150
   14      C      -3.1639821652    -0.3924662642    -4.0230629073
[...]
    7   -1104.5563086608      1.25E-08
    8   -1104.5563086607      8.92E-09 Convergence criterion met
 ---------------------------------------
 <S^2> = 0.7647
 SCF time:  CPU 5.38 s  wall 5.09 s
 SCF   energy in the final basis set = -1104.5563086607
 Total energy in the final basis set = -1104.5563086607
 
 --------------------------------------------------------------
 
                    Orbital Energies (a.u.)
 --------------------------------------------------------------
 
 Alpha MOs
 -- Occupied --
-89.097 -89.097 -10.433 -10.433 -10.417 -10.417 -10.394 -10.394
-10.379 -10.379  -8.156  -8.156  -6.120  -6.120  -6.116  -6.116
 -6.113  -6.113  -1.085  -1.060  -0.957  -0.930  -0.921  -0.881
 -0.786  -0.753  -0.730  -0.712  -0.699  -0.650  -0.597  -0.593
 -0.587  -0.581  -0.579  -0.556  -0.550  -0.532  -0.522  -0.459
 -0.437  -0.437  -0.403
 -- Virtual --
 -0.238  -0.198  -0.157  -0.157  -0.134  -0.123  -0.122  -0.110
 -0.099  -0.097  -0.090  -0.085  -0.081  -0.076  -0.069  -0.061
 -0.044  -0.038  -0.037  -0.027  -0.021  -0.018  -0.008  -0.007
  0.000   0.001   0.006   0.009   0.011   0.014   0.021   0.023
  0.025   0.029   0.033   0.037   0.042   0.043   0.048   0.059
  0.069   0.071   0.076   0.078   0.090   0.093   0.102   0.104
  0.104   0.111   0.115   0.122   0.137   0.147   0.153   0.158
  0.169   0.172   0.189   0.196   0.207   0.222   0.228   0.237
  0.263   0.305   0.307   0.353   0.363   0.381   0.387   0.404
  0.412   0.448   0.454   0.465   0.467   0.496   0.499   0.503
  0.530   0.536   0.559   0.562   0.576   0.591   0.593   0.609
  0.611   0.634   0.654   0.661   0.662   0.706   0.741   0.747
  0.763   0.781   0.803   0.812   0.818   0.823   0.826   0.842
  0.851   0.861   0.863   0.912   0.915   0.918   0.930   0.938
  0.982   1.006   1.008   1.059   1.073   1.103   1.148   1.158
  1.163   1.164   1.181   1.201   1.242   1.282   1.316   1.356
  1.409   1.475   1.515   1.537   1.647   1.659   1.712   1.724
  1.731   1.745   1.785   1.818   1.837   1.838   1.896   1.908
  1.928   1.957   1.980   1.995   2.038   2.068   2.071   2.163
  2.201   2.204   2.238   2.263   2.283   2.300   2.319   2.327
  2.341   2.353   2.397   2.408   2.430   2.471   2.511   2.527
  2.573   2.653   2.663   2.707   2.741   2.980   3.004   3.106
  3.108   3.227   3.240   3.546   3.566   3.798   3.802   4.087
  4.090   4.136   4.148   4.239   4.338   4.488   4.523
 
 Beta MOs
 -- Occupied --
-89.097 -89.097 -10.431 -10.430 -10.413 -10.413 -10.392 -10.392
-10.379 -10.379  -8.156  -8.156  -6.121  -6.120  -6.117  -6.116
 -6.113  -6.113  -1.079  -1.055  -0.950  -0.928  -0.919  -0.871
 -0.781  -0.749  -0.725  -0.709  -0.697  -0.647  -0.591  -0.589
 -0.582  -0.577  -0.577  -0.545  -0.540  -0.530  -0.520  -0.437
 -0.434  -0.428
 -- Virtual --
 -0.336  -0.218  -0.182  -0.154  -0.154  -0.127  -0.119  -0.112
 -0.109  -0.098  -0.095  -0.089  -0.085  -0.080  -0.075  -0.068
 -0.061  -0.043  -0.037  -0.036  -0.026  -0.021  -0.018  -0.008
 -0.006   0.001   0.002   0.007   0.011   0.012   0.016   0.022
  0.024   0.027   0.030   0.034   0.038   0.044   0.044   0.049
  0.060   0.070   0.073   0.078   0.080   0.091   0.094   0.102
  0.105   0.105   0.111   0.119   0.123   0.137   0.149   0.154
  0.160   0.170   0.173   0.191   0.198   0.209   0.224   0.230
  0.240   0.265   0.306   0.309   0.355   0.364   0.381   0.388
  0.405   0.413   0.449   0.456   0.468   0.474   0.505   0.507
  0.510   0.532   0.538   0.560   0.564   0.579   0.597   0.598
  0.612   0.615   0.640   0.656   0.666   0.667   0.709   0.743
  0.751   0.769   0.783   0.806   0.813   0.820   0.825   0.829
  0.843   0.853   0.862   0.864   0.913   0.917   0.918   0.932
  0.940   0.987   1.010   1.013   1.065   1.076   1.105   1.152
  1.161   1.168   1.172   1.188   1.204   1.249   1.287   1.324
  1.361   1.418   1.486   1.529   1.549   1.651   1.664   1.721
  1.726   1.734   1.748   1.787   1.824   1.842   1.844   1.903
  1.913   1.938   1.965   1.986   2.006   2.051   2.074   2.076
  2.170   2.205   2.207   2.241   2.269   2.287   2.302   2.324
  2.332   2.345   2.356   2.402   2.413   2.435   2.474   2.515
  2.531   2.579   2.656   2.666   2.708   2.744   2.981   3.005
  3.106   3.109   3.229   3.242   3.548   3.567   3.798   3.802
  4.093   4.097   4.139   4.151   4.246   4.345   4.491   4.526
 --------------------------------------------------------------
 
          Ground-State Mulliken Net Atomic Charges

     Atom                 Charge (a.u.)    Spin (a.u.)
  --------------------------------------------------------
      1 S                     0.176621      -0.056108
      2 C                     0.085725       0.317368
      3 H                     0.251457      -0.015736
      4 C                    -0.382280      -0.030469
      5 H                     0.171295       0.001491
      6 C                     0.156799       0.144359
      7 H                     0.175659      -0.009019
      8 C                    -0.134643       0.148851
      9 C                    -0.134121       0.147022
     10 C                     0.155343       0.144547
     11 H                     0.175247      -0.008958
     12 C                    -0.383826      -0.030373
     13 H                     0.171221       0.001483
     14 C                     0.086770       0.317162
     15 H                     0.251361      -0.015754
     16 S                     0.177374      -0.055866
  --------------------------------------------------------
  Sum of atomic charges =     1.000000
  Sum of spin   charges =     1.000000

 -----------------------------------------------------------------
                    Cartesian Multipole Moments
 -----------------------------------------------------------------
    Charge (ESU x 10^10)
                 4.8032
    Dipole Moment (Debye)
         X      -3.1391      Y       0.6467      Z     -10.4063
       Tot      10.8887
    Quadrupole Moments (Debye-Ang)
        XX     -34.4663     XY      -1.5670     YY     -66.1088
        XZ      24.4889     YZ       4.0503     ZZ     -28.9469
    Octopole Moments (Debye-Ang^2)
       XXX     100.3992    XXY      18.8269    XYY      36.1231
       YYY      23.7868    XXZ      31.1846    XYZ       1.3476
       YYZ     127.9548    XZZ     -49.0015    YZZ     -14.2800
       ZZZ     267.8645
    Hexadecapole Moments (Debye-Ang^3)
      XXXX   -1254.4549   XXXY     -65.5358   XXYY    -285.6007
      XYYY     -46.8838   YYYY    -294.7556   XXXZ    -361.7368
      XXYZ     -49.7031   XYYZ    -185.7739   YYYZ    -145.9471
      XXZZ    -257.9090   XYZZ      22.1176   YYZZ    -443.9763
      XZZZ    -240.3543   YZZZ     -29.0060   ZZZZ   -2010.9306
 -----------------------------------------------------------------
 Calculating analytic gradient of the SCF energy
 Gradient of SCF Energy
            1           2           3           4           5           6
    1  -0.0000649   0.0000481  -0.0000215   0.0000136  -0.0000033   0.0005086
    2   0.0000159   0.0000859   0.0000099   0.0000217   0.0000356   0.0123769
    3   0.0000194  -0.0000723   0.0000201   0.0001248   0.0000064  -0.0000519
            7           8           9          10          11          12
    1   0.0000199   0.0024206  -0.0084924   0.0055391   0.0000005  -0.0000468
    2   0.0000398  -0.0175936   0.0013191   0.0038175   0.0000163  -0.0001062
    3   0.0000082  -0.0061809   0.0166613  -0.0103687  -0.0000518  -0.0000756
           13          14          15          16
    1   0.0000099   0.0000177   0.0000061   0.0000448
    2  -0.0000150   0.0000865  -0.0000549  -0.0000555
    3  -0.0000311  -0.0000327   0.0000111   0.0000137
 Max gradient component =       1.759E-02
 RMS gradient           =       4.590E-03
 Gradient time:  CPU 1.95 s  wall 1.89 s
 Geometry Optimization Parameters
   NAtoms,    NIC,     NZ,  NCons,   NDum,   NFix, NCnnct, MaxDiis
       16     111       0       1       0       0       0       0

 Cartesian Hessian Update
 Hessian Updated using BFGS Update


** CONSTRAINED OPTIMIZATION IN DELOCALIZED INTERNAL COORDINATES **
   Searching for a Minimum

   Optimization Cycle:   8

                       Coordinates (Angstroms)
     ATOM                X               Y               Z
      1  S         0.0142719617    0.2810644444    0.0556287732
      2  C         1.7257170301    0.3222961353   -0.0884712599
      3  H         2.3349564150    0.5480106897    0.7789184362
      4  C         2.1734616062    0.0067308333   -1.3706695043
      5  H         3.2190142848    0.0225416418   -1.6539867977
      6  C         1.1272718093   -0.3076785740   -2.2384890487
      7  H         1.2541710995   -0.5515232939   -3.2872408085
      8  C        -0.1460985662   -0.2398485269   -1.6252096978
      9  C        -1.4153591485   -0.1801515376   -2.2692247536
     10  C        -2.2994282881    0.9233183352   -2.3197385171
     11  H        -2.1904997464    1.7841485578   -1.6697658200
     12  C        -3.2796900886    0.7982293891   -3.3045631909
     13  H        -4.0411008751    1.5416603152   -3.5073964163
     14  C        -3.1637449264   -0.3907268502   -4.0235933036
     15  H        -3.8277204266   -0.7518687218   -4.8003148185
     16  S        -1.8247306307   -1.3476552673   -3.5306725425
   Point Group: c1    Number of degrees of freedom:    42


   Energy is  -1104.556308661

              Constraints and their Current Values
                                        Value     Constraint
   Dihedral:        6   8   9  10     -110.000     -110.000
 Hessian Updated using BFGS Update

 40 Hessian modes will be used to form the next step
  Hessian Eigenvalues:
     0.014606    0.020328    0.044357    0.045000    0.045000    0.045002
     0.045006    0.045011    0.045014    0.045085    0.048084    0.150103
     0.159861    0.159949    0.159993    0.160008    0.160030    0.221289
     0.222654    0.237944    0.247487    0.250013    0.276972    0.290883
     0.294525    0.298667    0.312597    0.354776    0.354918    0.355121
     0.355132    0.358272    0.358696    0.386664    0.404948    0.424381
     0.445432    0.463591    0.487406    0.497954

 Minimum Search - Taking Simple RFO Step
 Searching for Lamda that Minimizes Along All modes
 Value Taken    Lamda =   0.00000000
 Step Taken.  Stepsize is  0.003510

                             Maximum     Tolerance    Cnvgd?
         Gradient           0.000119      0.000300     YES
         Displacement       0.002148      0.001200      NO
         Energy change     -0.000001      0.000001     YES

 Final energy is   -1104.55630866071     


 ******************************
 **  OPTIMIZATION CONVERGED  **
 ******************************

                       Coordinates (Angstroms)
     ATOM                X               Y               Z
      1  S         0.0142719617    0.2810644444    0.0556287732
      2  C         1.7257170301    0.3222961353   -0.0884712599
      3  H         2.3349564150    0.5480106897    0.7789184362
      4  C         2.1734616062    0.0067308333   -1.3706695043
      5  H         3.2190142848    0.0225416418   -1.6539867977
      6  C         1.1272718093   -0.3076785740   -2.2384890487
      7  H         1.2541710995   -0.5515232939   -3.2872408085
      8  C        -0.1460985662   -0.2398485269   -1.6252096978
      9  C        -1.4153591485   -0.1801515376   -2.2692247536
     10  C        -2.2994282881    0.9233183352   -2.3197385171
     11  H        -2.1904997464    1.7841485578   -1.6697658200
     12  C        -3.2796900886    0.7982293891   -3.3045631909
     13  H        -4.0411008751    1.5416603152   -3.5073964163
     14  C        -3.1637449264   -0.3907268502   -4.0235933036
     15  H        -3.8277204266   -0.7518687218   -4.8003148185
     16  S        -1.8247306307   -1.3476552673   -3.5306725425

Z-matrix Print:
$molecule
1 2
S 
C  1 1.717996
H  2 1.083736 1 119.860386
C  2 1.394306 1 113.054109 3 178.239771 0
H  4 1.083374 2 123.168091 1 177.445170 0
C  4 1.395162 2 112.470677 1 -1.654999 0
H  6 1.084179 4 124.375284 2 178.018402 0
C  6 1.414986 4 113.230021 2 -0.167551 0
C  8 1.424550 6 127.436825 4 163.644221 0
C  9 1.414841 8 127.269380 6 -110.000000 0
H  10 1.084140 9 122.350041 8 -14.348011 0
C  10 1.395149 9 113.222964 8 163.893736 0
H  12 1.083318 10 124.365869 9 -179.292249 0
C  12 1.394297 10 112.460842 9 -0.189256 0
H  14 1.083782 12 127.069926 10 176.422686 0
S  14 1.718034 12 113.067480 10 -1.654573 0
$end

 
 --------------------------------------------------------------
 
                    Orbital Energies (a.u.)
 --------------------------------------------------------------
 
 Alpha MOs
 -- Occupied --
-89.097 -89.097 -10.433 -10.433 -10.417 -10.417 -10.394 -10.394
-10.379 -10.379  -8.156  -8.156  -6.120  -6.120  -6.116  -6.116
 -6.113  -6.113  -1.085  -1.060  -0.957  -0.930  -0.921  -0.881
 -0.786  -0.753  -0.730  -0.712  -0.699  -0.650  -0.597  -0.593
 -0.587  -0.581  -0.579  -0.556  -0.550  -0.532  -0.522  -0.459
 -0.437  -0.437  -0.403
 -- Virtual --
 -0.238  -0.198  -0.157  -0.157  -0.134  -0.123  -0.122  -0.110
 -0.099  -0.097  -0.090  -0.085  -0.081  -0.076  -0.069  -0.061
 -0.044  -0.038  -0.037  -0.027  -0.021  -0.018  -0.008  -0.007
  0.000   0.001   0.006   0.009   0.011   0.014   0.021   0.023
  0.025   0.029   0.033   0.037   0.042   0.043   0.048   0.059
  0.069   0.071   0.076   0.078   0.090   0.093   0.102   0.104
  0.104   0.111   0.115   0.122   0.137   0.147   0.153   0.158
  0.169   0.172   0.189   0.196   0.207   0.222   0.228   0.237
  0.263   0.305   0.307   0.353   0.363   0.381   0.387   0.404
  0.412   0.448   0.454   0.465   0.467   0.496   0.499   0.503
  0.530   0.536   0.559   0.562   0.576   0.591   0.593   0.609
  0.611   0.634   0.654   0.661   0.662   0.706   0.741   0.747
  0.763   0.781   0.803   0.812   0.818   0.823   0.826   0.842
  0.851   0.861   0.863   0.912   0.915   0.918   0.930   0.938
  0.982   1.006   1.008   1.059   1.073   1.103   1.148   1.158
  1.163   1.164   1.181   1.201   1.242   1.282   1.316   1.356
  1.409   1.475   1.515   1.537   1.647   1.659   1.712   1.724
  1.731   1.745   1.785   1.818   1.837   1.838   1.896   1.908
  1.928   1.957   1.980   1.995   2.038   2.068   2.071   2.163
  2.201   2.204   2.238   2.263   2.283   2.300   2.319   2.327
  2.341   2.353   2.397   2.408   2.430   2.471   2.511   2.527
  2.573   2.653   2.663   2.707   2.741   2.980   3.004   3.106
  3.108   3.227   3.240   3.546   3.566   3.798   3.802   4.087
  4.090   4.136   4.148   4.239   4.338   4.488   4.523
 
 Beta MOs
 -- Occupied --
-89.097 -89.097 -10.431 -10.430 -10.413 -10.413 -10.392 -10.392
-10.379 -10.379  -8.156  -8.156  -6.121  -6.120  -6.117  -6.116
 -6.113  -6.113  -1.079  -1.055  -0.950  -0.928  -0.919  -0.871
 -0.781  -0.749  -0.725  -0.709  -0.697  -0.647  -0.591  -0.589
 -0.582  -0.577  -0.577  -0.545  -0.540  -0.530  -0.520  -0.437
 -0.434  -0.428
 -- Virtual --
 -0.336  -0.218  -0.182  -0.154  -0.154  -0.127  -0.119  -0.112
 -0.109  -0.098  -0.095  -0.089  -0.085  -0.080  -0.075  -0.068
 -0.061  -0.043  -0.037  -0.036  -0.026  -0.021  -0.018  -0.008
 -0.006   0.001   0.002   0.007   0.011   0.012   0.016   0.022
  0.024   0.027   0.030   0.034   0.038   0.044   0.044   0.049
  0.060   0.070   0.073   0.078   0.080   0.091   0.094   0.102
  0.105   0.105   0.111   0.119   0.123   0.137   0.149   0.154
  0.160   0.170   0.173   0.191   0.198   0.209   0.224   0.230
  0.240   0.265   0.306   0.309   0.355   0.364   0.381   0.388
  0.405   0.413   0.449   0.456   0.468   0.474   0.505   0.507
  0.510   0.532   0.538   0.560   0.564   0.579   0.597   0.598
  0.612   0.615   0.640   0.656   0.666   0.667   0.709   0.743
  0.751   0.769   0.783   0.806   0.813   0.820   0.825   0.829
  0.843   0.853   0.862   0.864   0.913   0.917   0.918   0.932
  0.940   0.987   1.010   1.013   1.065   1.076   1.105   1.152
  1.161   1.168   1.172   1.188   1.204   1.249   1.287   1.324
  1.361   1.418   1.486   1.529   1.549   1.651   1.664   1.721
  1.726   1.734   1.748   1.787   1.824   1.842   1.844   1.903
  1.913   1.938   1.965   1.986   2.006   2.051   2.074   2.076
  2.170   2.205   2.207   2.241   2.269   2.287   2.302   2.324
  2.332   2.345   2.356   2.402   2.413   2.435   2.474   2.515
  2.531   2.579   2.656   2.666   2.708   2.744   2.981   3.005
  3.106   3.109   3.229   3.242   3.548   3.567   3.798   3.802
  4.093   4.097   4.139   4.151   4.246   4.345   4.491   4.526
 --------------------------------------------------------------
 
          Ground-State Mulliken Net Atomic Charges

     Atom                 Charge (a.u.)    Spin (a.u.)
  --------------------------------------------------------
      1 S                     0.176621      -0.056108
      2 C                     0.085725       0.317368
      3 H                     0.251457      -0.015736
      4 C                    -0.382280      -0.030469
      5 H                     0.171295       0.001491
      6 C                     0.156799       0.144359
      7 H                     0.175659      -0.009019
      8 C                    -0.134643       0.148851
      9 C                    -0.134121       0.147022
     10 C                     0.155343       0.144547
     11 H                     0.175247      -0.008958
     12 C                    -0.383826      -0.030373
     13 H                     0.171221       0.001483
     14 C                     0.086770       0.317162
     15 H                     0.251361      -0.015754
     16 S                     0.177374      -0.055866
  --------------------------------------------------------
  Sum of atomic charges =     1.000000
  Sum of spin   charges =     1.000000

 -----------------------------------------------------------------
                    Cartesian Multipole Moments
 -----------------------------------------------------------------
    Charge (ESU x 10^10)
                 4.8032
    Dipole Moment (Debye)
         X      -3.1391      Y       0.6467      Z     -10.4063
       Tot      10.8887
    Quadrupole Moments (Debye-Ang)
        XX     -34.4663     XY      -1.5670     YY     -66.1088
        XZ      24.4889     YZ       4.0503     ZZ     -28.9469
    Octopole Moments (Debye-Ang^2)
       XXX     100.3992    XXY      18.8269    XYY      36.1231
       YYY      23.7868    XXZ      31.1846    XYZ       1.3476
       YYZ     127.9548    XZZ     -49.0015    YZZ     -14.2800
       ZZZ     267.8645
    Hexadecapole Moments (Debye-Ang^3)
      XXXX   -1254.4549   XXXY     -65.5358   XXYY    -285.6007
      XYYY     -46.8838   YYYY    -294.7556   XXXZ    -361.7368
      XXYZ     -49.7031   XYYZ    -185.7739   YYYZ    -145.9471
      XXZZ    -257.9090   XYZZ      22.1176   YYZZ    -443.9763
      XZZZ    -240.3543   YZZZ     -29.0060   ZZZZ   -2010.9306
 -----------------------------------------------------------------
Archival summary:
1\1\nid00796\OPT\ProcedureUnspecified\BasisUnspecified\286(1+,2)\bwood\WedMay3102:27:262017WedMay3102:27:262017\0\\#,OPT,ProcedureUnspecified,BasisUnspecified,\\1,2\S\C,1,1.718\H,2,1.08374,1,119.86\C,2,1.39431,1,113.054,3,178.24,0\H,4,1.08337,2,123.168,1,177.445,0\C,4,1.39516,2,112.471,1,-1.655,0\H,6,1.08418,4,124.375,2,178.018,0\C,6,1.41499,4,113.23,2,-0.167551,0\C,8,1.42455,6,127.437,4,163.644,0\C,9,1.41484,8,127.269,6,-110,0\H,10,1.08414,9,122.35,8,-14.348,0\C,10,1.39515,9,113.223,8,163.894,0\H,12,1.08332,10,124.366,9,-179.292,0\C,12,1.3943,10,112.461,9,-0.189256,0\H,14,1.08378,12,127.07,10,176.423,0\S,14,1.71803,12,113.067,10,-1.65457,0\\\@

 Total job time:  95.76s(wall), 96.06s(cpu) 
 Wed May 31 02:27:26 2017

        *************************************************************
        *                                                           *
        *  Thank you very much for using Q-Chem.  Have a nice day.  *
        *                                                           *
        *************************************************************


0 sent ACK to 0 
now end server 0 ... 
