srun -N 1 --ntasks-per-node 16 --cpus-per-task 4 --cpu_bind=cores --nodelist nid00776 /global/project/projectdirs/jcesr/qchem/qc44/cnl_qc441/dist/exe/qcprog.cori.haswell.exe .pt_n2_cation_0.0.in.26276.qcin.1 /global/cscratch1/sd/bwood/qchem/nx/qchem26276/
Process 0 of 16 is on nid00776 - thread support 0
Process 1 of 16 is on nid00776 - thread support 0
Process 2 of 16 is on nid00776 - thread support 0
Process 3 of 16 is on nid00776 - thread support 0
Process 4 of 16 is on nid00776 - thread support 0
Process 5 of 16 is on nid00776 - thread support 0
Process 6 of 16 is on nid00776 - thread support 0
Process 15 of 16 is on nid00776 - thread support 0
initial socket setup ...start
initial socket setup ...done 
now start server 0 ... 
nid00776 10.128.3
Q-Chem Developer Version! Running on 10.128.3.*
                  Welcome to Q-Chem
     A Quantum Leap Into The Future Of Chemistry


 Q-Chem 4.4, Q-Chem, Inc., Pleasanton, CA (2016)

 Y. Shao,  Z. Gan,  E. Epifanovsky,  A. T. B. Gilbert,  M. Wormit,  
 J. Kussmann,  A. W. Lange,  A. Behn,  J. Deng,  X. Feng,  D. Ghosh,  
 M. Goldey,  P. R. Horn,  L. D. Jacobson,  I. Kaliman,  F. Rob,  
 R. Z. Khaliullin,  T. Kus,  A. Landau,  J. Liu,  E. I. Proynov,  Y. M. Rhee,  
 R. M. Richard,  M. A. Rohrdanz,  R. P. Steele,  E. J. Sundstrom,  
 H. L. Woodcock III,  P. M. Zimmerman,  D. Zuev,  B. Albrecht,  E. Alguire,  
 B. Austin,  S. A. Baeppler,  G. J. O. Beran,  Y. A. Bernard,  
 E. J. Berquist,  K. Brandhorst,  K. B. Bravaya,  S. T. Brown,  D. Casanova,  
 C.-M. Chang,  Y. Chen,  S. H. Chien,  K. D. Closser,  M. P. Coons,  
 D. L. Crittenden,  S. Dasgupta,  M. Diedenhofen,  R. A. DiStasio Jr.,  
 H. Do,  A. D. Dutoi,  R. G. Edgar,  P.-T. Fang,  S. Fatehi,  Q. Feng,  
 L. Fusti-Molnar,  A. Ghysels,  A. Golubeva-Zadorozhnaya,  J. Gomes,  
 A. Gunina,  M. W. D. Hanson-Heine,  P. H. P. Harbach,  A. W. Hauser,  
 J. E. Herr,  E. G. Hohenstein,  Z. C. Holden,  K. Hui,  T.-C. Jagau,  H. Ji,  
 B. Kaduk,  K. Khistyaev,  Jaehoon Kim,  Jihan Kim,  R. A. King,  
 P. Klunzinger,  K. Koh,  D. Kosenkov,  T. Kowalczyk,  C. M. Krauter,  
 A. Kunitsa,  K. U. Lao,  A. Laurent,  K. V. Lawler,  J. Lee,  D. Lefrancois,  
 S. Lehtola,  S. V. Levchenko,  C. Y. Lin,  Y.-S. Lin,  F. Liu,  E. Livshits,  
 R. C. Lochan,  A. Luenser,  P. Manohar,  S. F. Manzer,  S.-P. Mao,  Y. Mao,  
 N. Mardirossian,  A. V. Marenich,  L. A. Martinez-Martinez,  S. A. Maurer,  
 N. J. Mayhall,  J.-M. Mewes,  A. F. Morrison,  K. Nanda,  T. S. Nguyen-Beck,  
 C. M. Oana,  R. Olivares-Amaya,  D. P. O'Neill,  J. A. Parkhill,  
 T. M. Perrine,  R. Peverati,  P. A. Pieniazek,  F. Plasser,  A. Prociuk,  
 D. R. Rehn,  E. Rosta,  N. J. Russ,  N. Sergueev,  S. M. Sharada,  
 S. Sharma,  D. W. Small,  A. Sodt,  T. Stauch,  T. Stein,  D. Stuck,  
 Y.-C. Su,  A. J. W. Thom,  T. Tsuchimochi,  L. Vogt,  O. Vydrov,  T. Wang,  
 M. A. Watson,  J. Wenzel,  A. White,  C. F. Williams,  V. Vanovschi,  
 K. Yao,  S. Yeganeh,  S. R. Yost,  Z.-Q. You,  I. Y. Zhang,  X. Zhang,  
 Y. Zhao,  B. R. Brooks,  G. K. L. Chan,  D. M. Chipman,  C. J. Cramer,  
 W. A. Goddard III,  M. S. Gordon,  W. J. Hehre,  A. Klamt,  
 H. F. Schaefer III,  M. W. Schmidt,  C. D. Sherrill,  D. G. Truhlar,  
 A. Warshel,  X. Xu,  A. Aspuru-Guzik,  R. Baer,  A. T. Bell,  N. A. Besley,  
 J.-D. Chai,  A. Dreuw,  B. D. Dunietz,  T. R. Furlani,  S. R. Gwaltney,  
 C.-P. Hsu,  Y. Jung,  J. Kong,  D. S. Lambrecht,  W. Liang,  C. Ochsenfeld,  
 V. A. Rassolov,  L. V. Slipchenko,  J. E. Subotnik,  T. Van Voorhis,  
 J. M. Herbert,  A. I. Krylov,  P. M. W. Gill,  M. Head-Gordon

 Contributors to earlier versions of Q-Chem not listed above: 
 R. D. Adamson,  J. Baker,  E. F. C. Byrd,  A. K. Chakraborty,  C.-L. Cheng,  
 H. Dachsel,  R. J. Doerksen,  G. Hawkins,  A. Heyden,  S. Hirata,  
 G. Kedziora,  F. J. Keil,  C. Kelley,  P. P. Korambath,  W. Kurlancheek,  
 A. M. Lee,  M. S. Lee,  D. Liotard,  I. Lotan,  P. E. Maslen,  N. Nair,  
 D. Neuhauser,  R. Olson,  B. Peters,  J. Ritchie,  N. E. Schultz,  
 N. Shenvi,  A. C. Simmonett,  K. S. Thanthiriwatte,  Q. Wu,  W. Zhang

 Please cite Q-Chem as follows:
 Y. Shao et al., Mol. Phys. 113, 184-215 (2015)
 DOI: 10.1080/00268976.2014.952696

 Q-Chem 4.4.2 for Intel X86 EM64T Linux

 Parts of Q-Chem use Armadillo 5.200.1 (Boston Tea Smuggler).
 http://arma.sourceforge.net/

 Q-Chem begins on Wed May 31 02:25:49 2017  

Host: nid00776
0

     Scratch files written to /global/cscratch1/sd/bwood/qchem/nx/qchem26276.0//
 Parallel job on  16  processors

Checking the input file for inconsistencies... 	...done.

--------------------------------------------------------------
User input:
--------------------------------------------------------------
$molecule
 1  2
 S           0.00238887        0.06077275        0.00183269
 C           1.73707619        0.03315849        0.00323229
 H           2.27612737        0.05289032        0.94042557
 C           2.24169204       -0.01546201       -1.26965798
 H           3.30285780       -0.04005365       -1.48972496
 C           1.22479222       -0.01612968       -2.26811464
 H           1.42674790       -0.02650987       -3.33334501
 C          -0.05393771        0.02880388       -1.75170966
 C          -1.32450815        0.04889988       -2.45636342
 C          -1.56413539        0.02797616       -3.81510527
 H          -0.76907258       -0.02507099       -4.55055018
 C          -2.94948362        0.04896661       -4.14865348
 H          -3.32543470        0.02891802       -5.16519343
 C          -3.76145477        0.08416475       -3.04565841
 H          -4.84206678        0.09781436       -3.00600201
 S          -2.84128305        0.11001166       -1.57523288
$end


$rem
         jobtype = opt
        exchange = b3lyp
           basis = 6-31++g**
  max_scf_cycles = 150
      mem_static = 775
       mem_total = 7750
      sym_ignore = true
        symmetry = false
          thresh = 12
$end


$opt
CONSTRAINT
tors 6 8 9 10 0.0
ENDCONSTRAINT
$end

--------------------------------------------------------------
 ----------------------------------------------------------------
             Standard Nuclear Orientation (Angstroms)
    I     Atom           X                Y                Z
 ----------------------------------------------------------------
    1      S       0.0023888700     0.0607727500     0.0018326900
    2      C       1.7370761900     0.0331584900     0.0032322900
    3      H       2.2761273700     0.0528903200     0.9404255700
    4      C       2.2416920400    -0.0154620100    -1.2696579800
    5      H       3.3028578000    -0.0400536500    -1.4897249600
    6      C       1.2247922200    -0.0161296800    -2.2681146400
    7      H       1.4267479000    -0.0265098700    -3.3333450100
    8      C      -0.0539377100     0.0288038800    -1.7517096600
    9      C      -1.3245081500     0.0488998800    -2.4563634200
   10      C      -1.5641353900     0.0279761600    -3.8151052700
   11      H      -0.7690725800    -0.0250709900    -4.5505501800
   12      C      -2.9494836200     0.0489666100    -4.1486534800
   13      H      -3.3254347000     0.0289180200    -5.1651934300
   14      C      -3.7614547700     0.0841647500    -3.0456584100
   15      H      -4.8420667800     0.0978143600    -3.0060020100
   16      S      -2.8412830500     0.1100116600    -1.5752328800
 ----------------------------------------------------------------
 Nuclear Repulsion Energy =   633.1684960200 hartrees
 There are       43 alpha and       42 beta electrons
 Requested basis set is 6-31++G(d,p)
 There are 76 shells and 234 basis functions

 Total QAlloc Memory Limit   7750 MB
 Mega-Array Size       758 MB
 MEM_STATIC part       775 MB
 A cutoff of  1.0D-12 yielded   2529 shell pairs
 There are     24877 function pairs

 Q-Chem warning in module /project/projectdirs/jcesr/qchem/qc44/cnl_qc441/compile/cori/qc_src/libqints/qchem/aobasis.C, line 68:

 Using reconstructed effective core potential

 
 -------------------------------------------------------
 OpenMP Integral Computing Module                       
 Release: version 1.0, May 2013, Q-Chem Inc. Pittsburgh 
 -------------------------------------------------------
 Integral Job Info:
 Integral job number is                      11
 Integral operator is                         1
 short-range coefficients                     0
 long-range coefficients              100000000
 Omega coefficients                           0
 if combine SR and LR in K                    0
 Integral screening is                        0
 Integral computing path is                   2
 max size of driver memory is            800000
 size of driver memory is                593474
 size of scratch memory is             15166112
 max col of scratch BK array               1296
 max len of scratch array in speh3          155
 max len of scratch index in speh4           18
 max int batch size is                      520
 min int batch size is                       52
 fixed nKL is                                52
 max L of basis functions is                  2
 order of int derivative is                   0
 number of shells is                         76
 number of basis is                         234
 number of cartesian basis is               234
 number of contracted shell pairs          2529
 number of primitive shell pairs           8247
 maxK2 (contraction) of shell pair           36
 max number of K2 of shell pair               1
 max number of CS2 of shell pair            260
 max number of PS2 of shell pair           1500
 mem total for path MDJ                   51992
 -------------------------------------------------------
 Smallest overlap matrix eigenvalue = 5.36E-07
 Linear dependence detected in AO basis
 Number of orthogonalized atomic orbitals = 233
 Maximum deviation from orthogonality = 1.633E-10

 Scale SEOQF with 1.000000e-01/1.000000e-01/1.000000e-02

 Standard Electronic Orientation quadrupole field applied
 Nucleus-field energy     =     0.0000000095 hartrees
 Guess from superposition of atomic densities
 Warning:  Energy on first SCF cycle will be non-variational
 An unrestricted hybrid HF-DFT SCF calculation will be
 performed using Pulay DIIS extrapolation
 Exchange:     0.2000 Hartree-Fock + 0.0800 Slater + 0.7200 B88
 Correlation:  0.1900 VWN1RPA + 0.8100 LYP
 Using SG-1 standard quadrature grid
 SCF converges when DIIS error is below 1.0E-08
 Inaccurate integrated density:
   Number of electrons =    85
   Numerical integral  =    86.000776072288
   Relative error      =     1.1773836145 %
 ---------------------------------------
  Cycle       Energy         DIIS Error
 ---------------------------------------
    1   -1107.1815439586      4.42E-02
    2   -1104.4448897631      3.89E-03
    3   -1104.1942687988      6.68E-03
    4   -1104.5594135487      6.83E-04
    5   -1104.5623574913      4.31E-04
    6   -1104.5636153648      2.11E-04
    7   -1104.5640444354      6.03E-05
    8   -1104.5641264172      2.79E-05
    9   -1104.5641786460      1.55E-05
   10   -1104.5642135267      5.11E-06
   11   -1104.5642178905      2.52E-06
   12   -1104.5642184071      1.42E-06
   13   -1104.5642185014      4.51E-07
   14   -1104.5642185111      3.08E-07
   15   -1104.5642185153      8.41E-08
   16   -1104.5642185156      4.15E-08
   17   -1104.5642185161      2.01E-08
   18   -1104.5642185158      4.86E-09 Convergence criterion met
 ---------------------------------------
 <S^2> = 0.7652
 SCF time:  CPU 12.28 s  wall 11.64 s
 SCF   energy in the final basis set = -1104.5642185158
 Total energy in the final basis set = -1104.5642185158
 
 --------------------------------------------------------------
 
                    Orbital Energies (a.u.)
 --------------------------------------------------------------
 
 Alpha MOs
 -- Occupied --
-89.094 -89.094 -10.435 -10.435 -10.418 -10.418 -10.395 -10.395
-10.381 -10.381  -8.153  -8.153  -6.118  -6.117  -6.114  -6.113
 -6.110  -6.110  -1.088  -1.064  -0.960  -0.929  -0.915  -0.893
 -0.787  -0.759  -0.730  -0.711  -0.703  -0.651  -0.601  -0.595
 -0.594  -0.582  -0.582  -0.557  -0.552  -0.532  -0.514  -0.475
 -0.439  -0.431  -0.404
 -- Virtual --
 -0.243  -0.178  -0.172  -0.144  -0.127  -0.120  -0.112  -0.105
 -0.100  -0.098  -0.093  -0.081  -0.075  -0.073  -0.068  -0.060
 -0.051  -0.045  -0.040  -0.032  -0.022  -0.020  -0.010  -0.008
 -0.006  -0.002   0.007   0.015   0.017   0.018   0.023   0.025
  0.032   0.033   0.036   0.038   0.044   0.056   0.059   0.061
  0.063   0.069   0.077   0.079   0.088   0.101   0.105   0.107
  0.117   0.139   0.149   0.150   0.154   0.160   0.164   0.166
  0.177   0.180   0.203   0.207   0.236   0.241   0.250   0.283
  0.284   0.313   0.336   0.386   0.397   0.404   0.405   0.431
  0.434   0.460   0.468   0.478   0.481   0.496   0.508   0.528
  0.537   0.539   0.558   0.562   0.569   0.582   0.621   0.627
  0.635   0.651   0.661   0.665   0.714   0.761   0.763   0.776
  0.785   0.787   0.807   0.830   0.832   0.842   0.843   0.851
  0.864   0.868   0.915   0.916   0.945   0.961   0.979   1.002
  1.014   1.037   1.050   1.070   1.081   1.156   1.157   1.172
  1.180   1.184   1.198   1.281   1.330   1.360   1.365   1.408
  1.466   1.506   1.523   1.598   1.666   1.693   1.725   1.747
  1.748   1.800   1.817   1.835   1.843   1.894   1.922   1.932
  1.935   1.982   2.006   2.066   2.067   2.112   2.114   2.188
  2.200   2.233   2.282   2.300   2.311   2.316   2.332   2.368
  2.373   2.384   2.402   2.426   2.514   2.515   2.547   2.578
  2.620   2.674   2.782   2.807   2.965   3.041   3.107   3.110
  3.221   3.265   3.535   3.585   3.767   3.857   4.033   4.116
  4.127   4.164   4.213   4.368   4.464   4.555
 
 Beta MOs
 -- Occupied --
-89.094 -89.094 -10.433 -10.433 -10.414 -10.414 -10.392 -10.392
-10.381 -10.381  -8.153  -8.153  -6.118  -6.118  -6.114  -6.114
 -6.110  -6.110  -1.083  -1.058  -0.952  -0.927  -0.913  -0.883
 -0.782  -0.755  -0.725  -0.708  -0.701  -0.649  -0.598  -0.592
 -0.581  -0.580  -0.579  -0.550  -0.540  -0.531  -0.513  -0.446
 -0.436  -0.426
 -- Virtual --
 -0.338  -0.223  -0.176  -0.155  -0.132  -0.126  -0.118  -0.111
 -0.105  -0.099  -0.092  -0.084  -0.080  -0.073  -0.072  -0.066
 -0.058  -0.049  -0.044  -0.039  -0.031  -0.022  -0.017  -0.009
 -0.007  -0.006  -0.001   0.007   0.016   0.018   0.019   0.024
  0.026   0.033   0.034   0.038   0.038   0.044   0.056   0.060
  0.063   0.064   0.070   0.078   0.081   0.089   0.101   0.106
  0.109   0.117   0.141   0.150   0.151   0.156   0.161   0.165
  0.168   0.178   0.182   0.205   0.208   0.237   0.243   0.252
  0.285   0.286   0.314   0.336   0.386   0.401   0.406   0.407
  0.432   0.435   0.461   0.480   0.486   0.490   0.500   0.509
  0.529   0.541   0.546   0.560   0.563   0.571   0.592   0.622
  0.629   0.641   0.653   0.669   0.670   0.716   0.762   0.765
  0.781   0.788   0.790   0.811   0.831   0.833   0.843   0.844
  0.854   0.865   0.869   0.916   0.919   0.946   0.963   0.982
  1.006   1.018   1.041   1.054   1.080   1.083   1.161   1.162
  1.182   1.182   1.194   1.200   1.285   1.334   1.364   1.375
  1.417   1.470   1.520   1.536   1.602   1.673   1.696   1.726
  1.750   1.750   1.807   1.821   1.841   1.846   1.898   1.924
  1.942   1.946   1.996   2.015   2.074   2.077   2.115   2.118
  2.192   2.203   2.239   2.285   2.307   2.312   2.319   2.339
  2.372   2.377   2.391   2.406   2.431   2.516   2.519   2.552
  2.580   2.625   2.676   2.785   2.809   2.966   3.043   3.107
  3.110   3.223   3.267   3.537   3.586   3.767   3.857   4.038
  4.119   4.134   4.166   4.220   4.375   4.468   4.559
 --------------------------------------------------------------
 
          Ground-State Mulliken Net Atomic Charges

     Atom                 Charge (a.u.)    Spin (a.u.)
  --------------------------------------------------------
      1 S                    -0.106574      -0.059036
      2 C                     0.166551       0.320642
      3 H                     0.263264      -0.015231
      4 C                    -0.483904      -0.041807
      5 H                     0.173624       0.000395
      6 C                     0.458422       0.173467
      7 H                     0.150470      -0.010076
      8 C                    -0.121753       0.131569
      9 C                    -0.115571       0.131642
     10 C                     0.451823       0.173532
     11 H                     0.150143      -0.010069
     12 C                    -0.481776      -0.041757
     13 H                     0.173513       0.000395
     14 C                     0.164817       0.320522
     15 H                     0.263265      -0.015235
     16 S                    -0.106313      -0.058953
  --------------------------------------------------------
  Sum of atomic charges =     1.000000
  Sum of spin   charges =     1.000000

 -----------------------------------------------------------------
                    Cartesian Multipole Moments
 -----------------------------------------------------------------
    Charge (ESU x 10^10)
                 4.8032
    Dipole Moment (Debye)
         X      -3.1273      Y       0.1720      Z     -10.4405
       Tot      10.9001
    Quadrupole Moments (Debye-Ang)
        XX     -28.3241     XY      -0.6669     YY     -73.3640
        XZ      21.4840     YZ      -0.0975     ZZ     -26.0031
    Octopole Moments (Debye-Ang^2)
       XXX      78.5603    XXY      -0.6868    XYY      61.6118
       YYY     -10.6194    XXZ      21.6897    XYZ       2.0011
       YYZ     134.3700    XZZ     -19.7546    YZZ      -3.0933
       ZZZ     202.7157
    Hexadecapole Moments (Debye-Ang^3)
      XXXX   -1293.2206   XXXY       7.3362   XXYY    -368.5480
      XYYY      22.5173   YYYY     -88.1950   XXXZ    -258.5475
      XXYZ      -0.6355   XYYZ    -225.5338   YYYZ      18.0067
      XXZZ    -330.9478   XYZZ       2.2003   YYZZ    -422.3761
      XZZZ    -270.5912   YZZZ      17.7570   ZZZZ   -1471.9129
 -----------------------------------------------------------------
 Calculating analytic gradient of the SCF energy
 Gradient of SCF Energy
            1           2           3           4           5           6
    1  -0.0012325   0.0185709  -0.0005834   0.0023625   0.0004559  -0.0360382
    2  -0.0008961   0.0001836   0.0002073   0.0000495   0.0000756  -0.0004161
    3  -0.0129509  -0.0087252  -0.0010913   0.0315332   0.0005646   0.0033039
            7           8           9          10          11          12
    1  -0.0017001   0.0411823  -0.0223292   0.0162283   0.0013105  -0.0279093
    2   0.0008112  -0.0005146  -0.0007899   0.0018456  -0.0008105   0.0014681
    3  -0.0005328   0.0007751  -0.0343881   0.0320885   0.0010871   0.0145999
           13          14          15          16
    1  -0.0007011  -0.0024005   0.0012245   0.0115595
    2  -0.0000632  -0.0011967  -0.0002570   0.0003033
    3  -0.0000465  -0.0202588  -0.0001055  -0.0058533
 Max gradient component =       4.118E-02
 RMS gradient           =       1.382E-02
 Gradient time:  CPU 2.00 s  wall 1.94 s
 Geometry Optimization Parameters
   NAtoms,    NIC,     NZ,  NCons,   NDum,   NFix, NCnnct, MaxDiis
       16     111       0       1       0       0       0       0


** CONSTRAINED OPTIMIZATION IN DELOCALIZED INTERNAL COORDINATES **
   Searching for a Minimum

   Optimization Cycle:   1

                       Coordinates (Angstroms)
     ATOM                X               Y               Z
      1  S         0.0023888700    0.0607727500    0.0018326900
      2  C         1.7370761900    0.0331584900    0.0032322900
      3  H         2.2761273700    0.0528903200    0.9404255700
      4  C         2.2416920400   -0.0154620100   -1.2696579800
      5  H         3.3028578000   -0.0400536500   -1.4897249600
      6  C         1.2247922200   -0.0161296800   -2.2681146400
      7  H         1.4267479000   -0.0265098700   -3.3333450100
      8  C        -0.0539377100    0.0288038800   -1.7517096600
      9  C        -1.3245081500    0.0488998800   -2.4563634200
     10  C        -1.5641353900    0.0279761600   -3.8151052700
     11  H        -0.7690725800   -0.0250709900   -4.5505501800
     12  C        -2.9494836200    0.0489666100   -4.1486534800
     13  H        -3.3254347000    0.0289180200   -5.1651934300
     14  C        -3.7614547700    0.0841647500   -3.0456584100
     15  H        -4.8420667800    0.0978143600   -3.0060020100
     16  S        -2.8412830500    0.1100116600   -1.5752328800
   Point Group: c1    Number of degrees of freedom:    42


   Energy is  -1104.564218516

              Constraints and their Current Values
                                        Value     Constraint
   Dihedral:        6   8   9  10       -0.000        0.000

 Attempting to Generate Delocalized Internal Coordinates

 41 Hessian modes will be used to form the next step
  Hessian Eigenvalues:
     0.045000    0.045000    0.045000    0.045000    0.045000    0.045000
     0.045002    0.045002    0.045003    0.045004    0.045011    0.045012
     0.159943    0.159949    0.159991    0.159992    0.160000    0.160000
     0.221282    0.221282    0.237835    0.237839    0.250000    0.250000
     0.294264    0.294663    0.312518    0.312618    0.354736    0.354850
     0.355125    0.355132    0.358226    0.358329    0.378510    0.404854
     0.404909    0.463547    0.463616    0.497922    0.497945

 Minimum Search - Taking Simple RFO Step
 Searching for Lamda that Minimizes Along All modes
 Value Taken    Lamda =  -0.01203037
 Step Taken.  Stepsize is  0.182350

                             Maximum     Tolerance    Cnvgd?
         Gradient           0.037384      0.000300      NO
         Displacement       0.107179      0.001200      NO
         Energy change     *********      0.000001      NO


 New Cartesian Coordinates Obtained by Inverse Iteration

 Displacement from previous Coordinates is:  0.471818
 ----------------------------------------------------------------
             Standard Nuclear Orientation (Angstroms)
    I     Atom           X                Y                Z
 ----------------------------------------------------------------
    1      S      -0.0165214538     0.0677084255     0.0561047615
    2      C       1.7087383800     0.0313973041    -0.0286813474
    3      H       2.2779034330     0.0450388979     0.8927187868
    4      C       2.2035918617    -0.0119900023    -1.3277084227
    5      H       3.2591187224    -0.0391750715    -1.5710058641
    6      C       1.1842389298    -0.0109898543    -2.2834614607
    7      H       1.3645717500    -0.0262087824    -3.3522121141
    8      C      -0.0993681411     0.0328972677    -1.7067603072
    9      C      -1.3388916909     0.0482891664    -2.3938136243
   10      C      -1.5298603921     0.0227044622    -3.7882351166
   11      H      -0.7197123573    -0.0250677334    -4.5068310664
   12      C      -2.8803022112     0.0438745338    -4.1468190933
   13      H      -3.2333402157     0.0257724374    -5.1711424498
   14      C      -3.7195980157     0.0852744776    -3.0386835392
   15      H      -4.8026101219     0.1036907285    -3.0331541022
   16      S      -2.8776528371     0.1059344229    -1.5301358205
 ----------------------------------------------------------------
 Nuclear Repulsion Energy =   633.4247268708 hartrees
 There are       43 alpha and       42 beta electrons
 Applying Cartesian multipole field
    Component          Value
    ---------          -----
     (2,0,0)        1.00000E-11
     (0,2,0)        2.00000E-11
     (0,0,2)       -3.00000E-12
 Nucleus-field energy     =     0.0000000094 hartrees
 Requested basis set is 6-31++G(d,p)
 There are 76 shells and 234 basis functions
 A cutoff of  1.0D-12 yielded   2535 shell pairs
 There are     24901 function pairs

 Q-Chem warning in module /project/projectdirs/jcesr/qchem/qc44/cnl_qc441/compile/cori/qc_src/libqints/qchem/aobasis.C, line 68:

 Using reconstructed effective core potential

 Smallest overlap matrix eigenvalue = 4.09E-07
 Linear dependence detected in AO basis
 Number of orthogonalized atomic orbitals = 233
 Maximum deviation from orthogonality = 1.773E-10
 Guess MOs from SCF MO coefficient file
 Reading MOs from coefficient file
 Reading MOs from coefficient file
 An unrestricted hybrid HF-DFT SCF calculation will be
 performed using Pulay DIIS extrapolation
 Exchange:     0.2000 Hartree-Fock + 0.0800 Slater + 0.7200 B88
 Correlation:  0.1900 VWN1RPA + 0.8100 LYP
 Using SG-1 standard quadrature grid
 SCF converges when DIIS error is below 1.0E-08
 Geometry optimization detected.  Setting ReadMinima to 0
 Setting SaveMinima to 0
 ---------------------------------------
  Cycle       Energy         DIIS Error
 ---------------------------------------
    1   -1104.4838616874      3.03E-03
    2   -1104.5676162269      5.60E-04
    3   -1104.5601966823      1.11E-03
    4   -1104.5701000600      1.42E-04
    5   -1104.5702463595      4.66E-05
    6   -1104.5702630510      9.55E-06
    7   -1104.5702641991      6.78E-06
    8   -1104.5702649155      1.35E-06
    9   -1104.5702651337      6.62E-07
   10   -1104.5702652429      3.88E-07
   11   -1104.5702652695      2.17E-07
   12   -1104.5702652731      9.46E-08
   13   -1104.5702652740      6.04E-08
   14   -1104.5702652737      3.45E-08
   15   -1104.5702652737      8.24E-09 Convergence criterion met
 ---------------------------------------
 <S^2> = 0.7685
 SCF time:  CPU 10.48 s  wall 9.84 s
 SCF   energy in the final basis set = -1104.5702652737
 Total energy in the final basis set = -1104.5702652737
 
 --------------------------------------------------------------
 
                    Orbital Energies (a.u.)
 --------------------------------------------------------------
 
 Alpha MOs
 -- Occupied --
-89.098 -89.098 -10.431 -10.431 -10.418 -10.418 -10.393 -10.393
-10.379 -10.379  -8.157  -8.157  -6.121  -6.121  -6.117  -6.117
 -6.114  -6.114  -1.086  -1.060  -0.957  -0.935  -0.920  -0.881
 -0.787  -0.758  -0.726  -0.712  -0.704  -0.646  -0.594  -0.593
 -0.591  -0.584  -0.577  -0.555  -0.549  -0.541  -0.522  -0.471
 -0.443  -0.435  -0.393
 -- Virtual --
 -0.248  -0.184  -0.173  -0.143  -0.127  -0.125  -0.111  -0.106
 -0.100  -0.097  -0.092  -0.080  -0.075  -0.070  -0.066  -0.058
 -0.051  -0.046  -0.041  -0.027  -0.021  -0.018  -0.011  -0.008
 -0.003  -0.001   0.008   0.014   0.016   0.018   0.020   0.025
  0.031   0.032   0.037   0.037   0.045   0.056   0.060   0.060
  0.069   0.071   0.079   0.081   0.085   0.096   0.102   0.106
  0.114   0.140   0.149   0.151   0.154   0.162   0.168   0.169
  0.178   0.180   0.203   0.210   0.233   0.235   0.253   0.284
  0.285   0.311   0.335   0.382   0.396   0.400   0.405   0.430
  0.437   0.461   0.470   0.479   0.480   0.495   0.510   0.528
  0.532   0.553   0.556   0.560   0.575   0.588   0.619   0.623
  0.639   0.645   0.662   0.665   0.709   0.762   0.762   0.774
  0.784   0.785   0.814   0.832   0.833   0.835   0.851   0.852
  0.864   0.872   0.909   0.917   0.937   0.957   0.987   0.995
  1.032   1.047   1.053   1.068   1.083   1.162   1.163   1.173
  1.175   1.180   1.186   1.289   1.334   1.362   1.362   1.395
  1.475   1.507   1.520   1.618   1.645   1.710   1.729   1.756
  1.759   1.823   1.825   1.834   1.840   1.902   1.914   1.917
  1.944   1.991   2.015   2.061   2.071   2.112   2.125   2.191
  2.201   2.231   2.274   2.296   2.309   2.323   2.328   2.374
  2.379   2.384   2.392   2.417   2.513   2.516   2.549   2.569
  2.640   2.682   2.777   2.805   2.968   3.039   3.107   3.109
  3.219   3.261   3.536   3.590   3.764   3.852   4.039   4.110
  4.120   4.168   4.216   4.362   4.470   4.561
 
 Beta MOs
 -- Occupied --
-89.098 -89.098 -10.430 -10.429 -10.414 -10.414 -10.391 -10.391
-10.380 -10.380  -8.157  -8.157  -6.121  -6.121  -6.118  -6.117
 -6.114  -6.114  -1.081  -1.055  -0.950  -0.932  -0.918  -0.870
 -0.783  -0.754  -0.722  -0.709  -0.703  -0.643  -0.593  -0.588
 -0.582  -0.579  -0.575  -0.547  -0.540  -0.538  -0.521  -0.444
 -0.439  -0.431
 -- Virtual --
 -0.326  -0.227  -0.182  -0.156  -0.132  -0.127  -0.123  -0.109
 -0.105  -0.100  -0.091  -0.082  -0.080  -0.073  -0.070  -0.065
 -0.056  -0.049  -0.045  -0.040  -0.026  -0.021  -0.015  -0.011
 -0.007  -0.002   0.000   0.009   0.015   0.017   0.019   0.021
  0.026   0.031   0.034   0.037   0.039   0.046   0.056   0.061
  0.063   0.070   0.072   0.081   0.083   0.086   0.098   0.102
  0.108   0.114   0.142   0.149   0.152   0.155   0.164   0.170
  0.170   0.180   0.181   0.204   0.211   0.234   0.237   0.256
  0.287   0.287   0.313   0.334   0.383   0.399   0.401   0.407
  0.431   0.438   0.461   0.482   0.485   0.492   0.499   0.511
  0.529   0.541   0.555   0.557   0.561   0.577   0.598   0.621
  0.624   0.645   0.647   0.670   0.670   0.710   0.763   0.763
  0.779   0.787   0.787   0.817   0.833   0.835   0.836   0.853
  0.854   0.865   0.874   0.911   0.919   0.938   0.959   0.991
  1.000   1.036   1.050   1.057   1.078   1.085   1.166   1.168
  1.177   1.182   1.184   1.197   1.291   1.338   1.366   1.372
  1.404   1.479   1.521   1.534   1.626   1.647   1.713   1.731
  1.759   1.761   1.827   1.831   1.837   1.846   1.906   1.917
  1.927   1.955   2.004   2.024   2.074   2.077   2.115   2.129
  2.195   2.204   2.236   2.276   2.304   2.309   2.324   2.335
  2.381   2.383   2.387   2.396   2.422   2.514   2.520   2.555
  2.571   2.645   2.684   2.780   2.808   2.969   3.041   3.107
  3.109   3.221   3.263   3.537   3.592   3.764   3.853   4.045
  4.117   4.123   4.171   4.223   4.369   4.473   4.565
 --------------------------------------------------------------
 
          Ground-State Mulliken Net Atomic Charges

     Atom                 Charge (a.u.)    Spin (a.u.)
  --------------------------------------------------------
      1 S                    -0.058728      -0.058176
      2 C                     0.108529       0.339019
      3 H                     0.258254      -0.016689
      4 C                    -0.443881      -0.053275
      5 H                     0.172744       0.001236
      6 C                     0.395964       0.175251
      7 H                     0.143356      -0.010486
      8 C                    -0.076033       0.123187
      9 C                    -0.070907       0.123086
     10 C                     0.389807       0.175247
     11 H                     0.142888      -0.010493
     12 C                    -0.441744      -0.053229
     13 H                     0.172702       0.001241
     14 C                     0.107041       0.338825
     15 H                     0.258234      -0.016688
     16 S                    -0.058225      -0.058054
  --------------------------------------------------------
  Sum of atomic charges =     1.000000
  Sum of spin   charges =     1.000000

 -----------------------------------------------------------------
                    Cartesian Multipole Moments
 -----------------------------------------------------------------
    Charge (ESU x 10^10)
                 4.8032
    Dipole Moment (Debye)
         X      -3.2225      Y       0.1782      Z     -10.2656
       Tot      10.7610
    Quadrupole Moments (Debye-Ang)
        XX     -29.4740     XY      -0.7099     YY     -73.3768
        XZ      20.3163     YZ      -0.0891     ZZ     -26.4645
    Octopole Moments (Debye-Ang^2)
       XXX      84.8462    XXY      -0.7048    XYY      62.2824
       YYY     -10.7200    XXZ      24.4804    XYZ       1.9861
       YYZ     133.2078    XZZ     -15.3660    YZZ      -3.1925
       ZZZ     199.3551
    Hexadecapole Moments (Debye-Ang^3)
      XXXX   -1305.7224   XXXY       6.2516   XXYY    -364.1933
      XYYY      21.6811   YYYY     -88.1855   XXXZ    -270.4392
      XXYZ      -1.0043   XYYZ    -220.9721   YYYZ      17.1452
      XXZZ    -340.1903   XYZZ       1.9210   YYZZ    -418.5374
      XZZZ    -271.0729   YZZZ      17.0846   ZZZZ   -1446.5155
 -----------------------------------------------------------------
 Calculating analytic gradient of the SCF energy
 Gradient of SCF Energy
            1           2           3           4           5           6
    1  -0.0090981   0.0028781  -0.0009301   0.0014516  -0.0001477  -0.0078012
    2   0.0000790   0.0000539   0.0001713  -0.0001131  -0.0000277  -0.0007478
    3   0.0033637  -0.0063130   0.0001579   0.0050620  -0.0015735  -0.0016537
            7           8           9          10          11          12
    1   0.0010481   0.0148228  -0.0102804   0.0056409  -0.0001061  -0.0050924
    2   0.0004999   0.0000180  -0.0003537   0.0009686  -0.0005779   0.0003035
    3  -0.0005599   0.0028155  -0.0111158   0.0057124  -0.0012011   0.0014155
           13          14          15          16
    1   0.0014361   0.0037271   0.0003651   0.0020861
    2  -0.0000562  -0.0004706  -0.0001393   0.0003923
    3  -0.0007265  -0.0057570   0.0008623   0.0095112
 Max gradient component =       1.482E-02
 RMS gradient           =       4.419E-03
 Gradient time:  CPU 1.96 s  wall 1.92 s
 Geometry Optimization Parameters
   NAtoms,    NIC,     NZ,  NCons,   NDum,   NFix, NCnnct, MaxDiis
       16     111       0       1       0       0       0       0

 Cartesian Hessian Update
 Hessian Updated using BFGS Update


** CONSTRAINED OPTIMIZATION IN DELOCALIZED INTERNAL COORDINATES **
   Searching for a Minimum

   Optimization Cycle:   2

                       Coordinates (Angstroms)
     ATOM                X               Y               Z
      1  S        -0.0165214538    0.0677084255    0.0561047615
      2  C         1.7087383800    0.0313973041   -0.0286813474
      3  H         2.2779034330    0.0450388979    0.8927187868
      4  C         2.2035918617   -0.0119900023   -1.3277084227
      5  H         3.2591187224   -0.0391750715   -1.5710058641
      6  C         1.1842389298   -0.0109898543   -2.2834614607
      7  H         1.3645717500   -0.0262087824   -3.3522121141
      8  C        -0.0993681411    0.0328972677   -1.7067603072
      9  C        -1.3388916909    0.0482891664   -2.3938136243
     10  C        -1.5298603921    0.0227044622   -3.7882351166
     11  H        -0.7197123573   -0.0250677334   -4.5068310664
     12  C        -2.8803022112    0.0438745338   -4.1468190933
     13  H        -3.2333402157    0.0257724374   -5.1711424498
     14  C        -3.7195980157    0.0852744776   -3.0386835392
     15  H        -4.8026101219    0.1036907285   -3.0331541022
     16  S        -2.8776528371    0.1059344229   -1.5301358205
   Point Group: c1    Number of degrees of freedom:    42


   Energy is  -1104.570265274

              Constraints and their Current Values
                                        Value     Constraint
   Dihedral:        6   8   9  10        0.000        0.000
 Hessian Updated using BFGS Update

 41 Hessian modes will be used to form the next step
  Hessian Eigenvalues:
     0.044843    0.045000    0.045000    0.045000    0.045000    0.045000
     0.045001    0.045002    0.045002    0.045004    0.045011    0.045012
     0.159320    0.159946    0.159992    0.159994    0.160000    0.161026
     0.220028    0.221283    0.229037    0.237837    0.250000    0.277344
     0.294412    0.295413    0.305961    0.312569    0.354440    0.354804
     0.355114    0.355129    0.358182    0.358306    0.380563    0.404881
     0.424499    0.442306    0.463582    0.489463    0.497935

 Minimum Search - Taking Simple RFO Step
 Searching for Lamda that Minimizes Along All modes
 Value Taken    Lamda =  -0.00148442
 Step Taken.  Stepsize is  0.079263

                             Maximum     Tolerance    Cnvgd?
         Gradient           0.009938      0.000300      NO
         Displacement       0.036731      0.001200      NO
         Energy change     -0.006047      0.000001      NO


 New Cartesian Coordinates Obtained by Inverse Iteration

 Displacement from previous Coordinates is:  0.185074
 ----------------------------------------------------------------
             Standard Nuclear Orientation (Angstroms)
    I     Atom           X                Y                Z
 ----------------------------------------------------------------
    1      S       0.0143116709     0.0709767156     0.0728890278
    2      C       1.7313837429     0.0304990500    -0.0240574110
    3      H       2.3169925083     0.0395888341     0.8879171739
    4      C       2.2059944407    -0.0093981044    -1.3353769872
    5      H       3.2597886542    -0.0386451040    -1.5842181179
    6      C       1.1770392344    -0.0072462114    -2.2751970165
    7      H       1.3431210437    -0.0274223482    -3.3450483256
    8      C      -0.1136033852     0.0350870433    -1.6894063789
    9      C      -1.3462446827     0.0471258849    -2.3723294646
   10      C      -1.5332544732     0.0192110033    -3.7773739305
   11      H      -0.7142118828    -0.0231698952    -4.4843918886
   12      C      -2.8751446675     0.0410455315    -4.1527355315
   13      H      -3.2225751205     0.0251560874    -5.1786117942
   14      C      -3.7355160296     0.0859018992    -3.0555300362
   15      H      -4.8191378904     0.1082335833    -3.0691680132
   16      S      -2.9086375233     0.1022067104    -1.5471820860
 ----------------------------------------------------------------
 Nuclear Repulsion Energy =   631.9204969164 hartrees
 There are       43 alpha and       42 beta electrons
 Applying Cartesian multipole field
    Component          Value
    ---------          -----
     (2,0,0)        1.00000E-11
     (0,2,0)        2.00000E-11
     (0,0,2)       -3.00000E-12
 Nucleus-field energy     =     0.0000000096 hartrees
 Requested basis set is 6-31++G(d,p)
 There are 76 shells and 234 basis functions
 A cutoff of  1.0D-12 yielded   2529 shell pairs
 There are     24877 function pairs

 Q-Chem warning in module /project/projectdirs/jcesr/qchem/qc44/cnl_qc441/compile/cori/qc_src/libqints/qchem/aobasis.C, line 68:

 Using reconstructed effective core potential

 Smallest overlap matrix eigenvalue = 3.98E-07
 Linear dependence detected in AO basis
 Number of orthogonalized atomic orbitals = 233
 Maximum deviation from orthogonality = 5.914E-11
 Guess MOs from SCF MO coefficient file
 Reading MOs from coefficient file
 Reading MOs from coefficient file
 An unrestricted hybrid HF-DFT SCF calculation will be
 performed using Pulay DIIS extrapolation
 Exchange:     0.2000 Hartree-Fock + 0.0800 Slater + 0.7200 B88
 Correlation:  0.1900 VWN1RPA + 0.8100 LYP
 Using SG-1 standard quadrature grid
 SCF converges when DIIS error is below 1.0E-08
 Geometry optimization detected.  Setting ReadMinima to 0
 Setting SaveMinima to 0
 ---------------------------------------
  Cycle       Energy         DIIS Error
 ---------------------------------------
    1   -1104.5358900005      9.75E-04
    2   -1104.5707176529      2.01E-04
    3   -1104.5697069314      4.02E-04
    4   -1104.5710501136      4.99E-05
    5   -1104.5710665923      1.48E-05
    6   -1104.5710681252      5.25E-06
    7   -1104.5710683837      1.56E-06
    8   -1104.5710684126      6.64E-07
    9   -1104.5710684191      1.44E-07
   10   -1104.5710684238      9.70E-08
   11   -1104.5710684255      5.25E-08
   12   -1104.5710684259      3.07E-08
   13   -1104.5710684257      1.32E-08
   14   -1104.5710684256      6.95E-09 Convergence criterion met
 ---------------------------------------
 <S^2> = 0.7689
 SCF time:  CPU 9.59 s  wall 9.52 s
 SCF   energy in the final basis set = -1104.5710684256
 Total energy in the final basis set = -1104.5710684256
 
 --------------------------------------------------------------
 
                    Orbital Energies (a.u.)
 --------------------------------------------------------------
 
 Alpha MOs
 -- Occupied --
-89.098 -89.098 -10.432 -10.432 -10.418 -10.418 -10.393 -10.393
-10.379 -10.379  -8.157  -8.157  -6.121  -6.121  -6.118  -6.117
 -6.114  -6.114  -1.086  -1.060  -0.959  -0.934  -0.920  -0.880
 -0.789  -0.758  -0.725  -0.712  -0.703  -0.648  -0.595  -0.593
 -0.591  -0.587  -0.577  -0.555  -0.550  -0.538  -0.520  -0.472
 -0.443  -0.435  -0.391
 -- Virtual --
 -0.249  -0.180  -0.172  -0.143  -0.127  -0.124  -0.112  -0.106
 -0.101  -0.097  -0.092  -0.080  -0.075  -0.071  -0.067  -0.058
 -0.052  -0.048  -0.041  -0.028  -0.022  -0.018  -0.011  -0.008
 -0.005  -0.001   0.009   0.015   0.016   0.018   0.020   0.025
  0.031   0.032   0.037   0.037   0.046   0.056   0.060   0.060
  0.069   0.071   0.079   0.081   0.084   0.097   0.102   0.107
  0.113   0.139   0.149   0.151   0.152   0.162   0.169   0.170
  0.179   0.180   0.203   0.211   0.233   0.236   0.253   0.280
  0.286   0.310   0.336   0.381   0.391   0.401   0.404   0.434
  0.438   0.459   0.471   0.480   0.480   0.493   0.508   0.527
  0.532   0.554   0.557   0.561   0.573   0.589   0.618   0.624
  0.637   0.642   0.662   0.663   0.707   0.760   0.763   0.776
  0.785   0.786   0.814   0.829   0.835   0.837   0.851   0.859
  0.862   0.874   0.910   0.918   0.937   0.954   0.985   0.995
  1.028   1.048   1.053   1.068   1.081   1.164   1.166   1.172
  1.175   1.181   1.185   1.285   1.330   1.361   1.365   1.394
  1.474   1.510   1.522   1.613   1.647   1.709   1.729   1.758
  1.761   1.819   1.827   1.828   1.830   1.896   1.911   1.912
  1.943   1.992   2.015   2.056   2.074   2.113   2.123   2.189
  2.200   2.232   2.270   2.299   2.307   2.324   2.328   2.370
  2.375   2.384   2.394   2.419   2.514   2.515   2.547   2.565
  2.640   2.683   2.777   2.801   2.968   3.041   3.109   3.110
  3.219   3.258   3.534   3.587   3.765   3.850   4.041   4.109
  4.118   4.167   4.217   4.357   4.467   4.557
 
 Beta MOs
 -- Occupied --
-89.098 -89.098 -10.430 -10.430 -10.414 -10.414 -10.391 -10.391
-10.380 -10.379  -8.157  -8.157  -6.122  -6.122  -6.118  -6.118
 -6.115  -6.115  -1.080  -1.055  -0.952  -0.931  -0.918  -0.870
 -0.784  -0.754  -0.721  -0.708  -0.701  -0.646  -0.593  -0.588
 -0.585  -0.579  -0.574  -0.548  -0.538  -0.537  -0.518  -0.445
 -0.439  -0.431
 -- Virtual --
 -0.325  -0.227  -0.178  -0.155  -0.132  -0.126  -0.122  -0.110
 -0.106  -0.101  -0.092  -0.083  -0.079  -0.073  -0.070  -0.066
 -0.056  -0.050  -0.047  -0.040  -0.027  -0.021  -0.015  -0.010
 -0.007  -0.004   0.001   0.009   0.016   0.017   0.018   0.021
  0.026   0.031   0.034   0.037   0.039   0.046   0.056   0.061
  0.063   0.071   0.072   0.081   0.083   0.085   0.099   0.102
  0.108   0.113   0.141   0.149   0.152   0.153   0.164   0.170
  0.171   0.181   0.181   0.204   0.213   0.234   0.238   0.256
  0.281   0.288   0.312   0.336   0.382   0.395   0.402   0.405
  0.435   0.439   0.460   0.482   0.485   0.492   0.498   0.509
  0.528   0.542   0.556   0.558   0.562   0.575   0.599   0.619
  0.625   0.643   0.644   0.668   0.669   0.709   0.762   0.764
  0.781   0.787   0.789   0.818   0.830   0.837   0.838   0.853
  0.861   0.863   0.876   0.912   0.920   0.938   0.955   0.989
  1.000   1.032   1.052   1.057   1.078   1.083   1.168   1.171
  1.177   1.182   1.183   1.196   1.288   1.333   1.369   1.372
  1.402   1.478   1.525   1.536   1.622   1.649   1.713   1.730
  1.760   1.763   1.824   1.832   1.833   1.837   1.900   1.914
  1.922   1.954   2.006   2.023   2.069   2.080   2.116   2.127
  2.193   2.203   2.237   2.273   2.307   2.307   2.326   2.334
  2.377   2.379   2.387   2.398   2.424   2.515   2.519   2.552
  2.568   2.646   2.685   2.780   2.803   2.969   3.042   3.109
  3.111   3.220   3.259   3.536   3.588   3.765   3.850   4.047
  4.116   4.122   4.169   4.224   4.364   4.471   4.561
 --------------------------------------------------------------
 
          Ground-State Mulliken Net Atomic Charges

     Atom                 Charge (a.u.)    Spin (a.u.)
  --------------------------------------------------------
      1 S                    -0.039829      -0.058308
      2 C                     0.111424       0.341148
      3 H                     0.259098      -0.016938
      4 C                    -0.452568      -0.054637
      5 H                     0.172465       0.001389
      6 C                     0.387529       0.172571
      7 H                     0.141048      -0.010648
      8 C                    -0.077982       0.125510
      9 C                    -0.074517       0.125503
     10 C                     0.379894       0.172422
     11 H                     0.140486      -0.010657
     12 C                    -0.450398      -0.054517
     13 H                     0.172451       0.001391
     14 C                     0.110011       0.340854
     15 H                     0.259104      -0.016934
     16 S                    -0.038217      -0.058151
  --------------------------------------------------------
  Sum of atomic charges =     1.000000
  Sum of spin   charges =     1.000000

 -----------------------------------------------------------------
                    Cartesian Multipole Moments
 -----------------------------------------------------------------
    Charge (ESU x 10^10)
                 4.8032
    Dipole Moment (Debye)
         X      -3.2397      Y       0.1795      Z     -10.2343
       Tot      10.7364
    Quadrupole Moments (Debye-Ang)
        XX     -29.0045     XY      -0.7381     YY     -73.3762
        XZ      20.7820     YZ      -0.1191     ZZ     -26.7150
    Octopole Moments (Debye-Ang^2)
       XXX      83.3756    XXY      -0.6098    XYY      62.3153
       YYY     -10.7049    XXZ      22.8813    XYZ       2.0945
       YYZ     133.1433    XZZ     -16.5595    YZZ      -3.0892
       ZZZ     200.4017
    Hexadecapole Moments (Debye-Ang^3)
      XXXX   -1311.1734   XXXY       4.8850   XXYY    -367.4896
      XYYY      21.0274   YYYY     -88.1506   XXXZ    -264.6571
      XXYZ      -1.6973   XYYZ    -222.9469   YYYZ      16.8012
      XXZZ    -337.1222   XYZZ       1.2455   YYZZ    -419.0409
      XZZZ    -272.7313   YZZZ      16.2961   ZZZZ   -1456.2245
 -----------------------------------------------------------------
 Calculating analytic gradient of the SCF energy
 Gradient of SCF Energy
            1           2           3           4           5           6
    1  -0.0017002   0.0016751  -0.0000657   0.0006387  -0.0001602  -0.0017273
    2   0.0001155  -0.0000932   0.0000790   0.0000771  -0.0000504  -0.0004675
    3   0.0010306  -0.0006949   0.0003566   0.0010057  -0.0004002  -0.0010548
            7           8           9          10          11          12
    1   0.0004784   0.0009176  -0.0002090   0.0018845  -0.0004012  -0.0012424
    2   0.0002937   0.0000851  -0.0001392   0.0004720  -0.0003053  -0.0000496
    3   0.0001512  -0.0003672  -0.0010314   0.0009382  -0.0003139   0.0000053
           13          14          15          16
    1   0.0004399  -0.0002984  -0.0002712   0.0000417
    2   0.0000334   0.0000007  -0.0000578   0.0000066
    3  -0.0000935  -0.0017842   0.0002435   0.0020091
 Max gradient component =       2.009E-03
 RMS gradient           =       7.903E-04
 Gradient time:  CPU 1.99 s  wall 1.93 s
 Geometry Optimization Parameters
   NAtoms,    NIC,     NZ,  NCons,   NDum,   NFix, NCnnct, MaxDiis
       16     111       0       1       0       0       0       0

 Cartesian Hessian Update
 Hessian Updated using BFGS Update


** CONSTRAINED OPTIMIZATION IN DELOCALIZED INTERNAL COORDINATES **
   Searching for a Minimum

   Optimization Cycle:   3

                       Coordinates (Angstroms)
     ATOM                X               Y               Z
      1  S         0.0143116709    0.0709767156    0.0728890278
      2  C         1.7313837429    0.0304990500   -0.0240574110
      3  H         2.3169925083    0.0395888341    0.8879171739
      4  C         2.2059944407   -0.0093981044   -1.3353769872
      5  H         3.2597886542   -0.0386451040   -1.5842181179
      6  C         1.1770392344   -0.0072462114   -2.2751970165
      7  H         1.3431210437   -0.0274223482   -3.3450483256
      8  C        -0.1136033852    0.0350870433   -1.6894063789
      9  C        -1.3462446827    0.0471258849   -2.3723294646
     10  C        -1.5332544732    0.0192110033   -3.7773739305
     11  H        -0.7142118828   -0.0231698952   -4.4843918886
     12  C        -2.8751446675    0.0410455315   -4.1527355315
     13  H        -3.2225751205    0.0251560874   -5.1786117942
     14  C        -3.7355160296    0.0859018992   -3.0555300362
     15  H        -4.8191378904    0.1082335833   -3.0691680132
     16  S        -2.9086375233    0.1022067104   -1.5471820860
   Point Group: c1    Number of degrees of freedom:    42


   Energy is  -1104.571068426

              Constraints and their Current Values
                                        Value     Constraint
   Dihedral:        6   8   9  10        0.000        0.000
 Hessian Updated using BFGS Update

 41 Hessian modes will be used to form the next step
  Hessian Eigenvalues:
     0.044320    0.045000    0.045000    0.045000    0.045000    0.045000
     0.045002    0.045002    0.045004    0.045004    0.045012    0.045055
     0.151750    0.159947    0.159992    0.160000    0.160005    0.160114
     0.218747    0.221283    0.236757    0.237849    0.250000    0.261652
     0.294342    0.294920    0.305192    0.312568    0.354683    0.354825
     0.355128    0.355134    0.358266    0.358502    0.379232    0.404880
     0.429802    0.444977    0.463584    0.489351    0.497938

 Minimum Search - Taking Simple RFO Step
 Searching for Lamda that Minimizes Along All modes
 Value Taken    Lamda =  -0.00005682
 Step Taken.  Stepsize is  0.019142

                             Maximum     Tolerance    Cnvgd?
         Gradient           0.001865      0.000300      NO
         Displacement       0.007253      0.001200      NO
         Energy change     -0.000803      0.000001      NO


 New Cartesian Coordinates Obtained by Inverse Iteration

 Displacement from previous Coordinates is:  0.027370
 ----------------------------------------------------------------
             Standard Nuclear Orientation (Angstroms)
    I     Atom           X                Y                Z
 ----------------------------------------------------------------
    1      S       0.0148528867     0.0712493483     0.0693930561
    2      C       1.7289013723     0.0309856998    -0.0237587423
    3      H       2.3140434001     0.0388253466     0.8880699102
    4      C       2.2066499955    -0.0085630357    -1.3344125567
    5      H       3.2618130175    -0.0382563193    -1.5777084728
    6      C       1.1804349753    -0.0064112113    -2.2750549662
    7      H       1.3449310171    -0.0296948168    -3.3451832833
    8      C      -0.1127432346     0.0353426328    -1.6916948197
    9      C      -1.3447423257     0.0464786089    -2.3742164178
   10      C      -1.5352189914     0.0181207081    -3.7801508262
   11      H      -0.7149511050    -0.0211092875    -4.4860803048
   12      C      -2.8763062451     0.0403504506    -4.1527679254
   13      H      -3.2292800733     0.0253326752    -5.1768359709
   14      C      -3.7344393049     0.0856361380    -3.0532838091
   15      H      -4.8176471265     0.1094243356    -3.0666297009
   16      S      -2.9059926177     0.1014394068    -1.5495059502
 ----------------------------------------------------------------
 Nuclear Repulsion Energy =   632.2129650527 hartrees
 There are       43 alpha and       42 beta electrons
 Applying Cartesian multipole field
    Component          Value
    ---------          -----
     (2,0,0)        1.00000E-11
     (0,2,0)        2.00000E-11
     (0,0,2)       -3.00000E-12
 Nucleus-field energy     =     0.0000000096 hartrees
 Requested basis set is 6-31++G(d,p)
 There are 76 shells and 234 basis functions
 A cutoff of  1.0D-12 yielded   2531 shell pairs
 There are     24885 function pairs

 Q-Chem warning in module /project/projectdirs/jcesr/qchem/qc44/cnl_qc441/compile/cori/qc_src/libqints/qchem/aobasis.C, line 68:

 Using reconstructed effective core potential

 Smallest overlap matrix eigenvalue = 3.97E-07
 Linear dependence detected in AO basis
 Number of orthogonalized atomic orbitals = 233
 Maximum deviation from orthogonality = 1.477E-10
 Guess MOs from SCF MO coefficient file
 Reading MOs from coefficient file
 Reading MOs from coefficient file
 An unrestricted hybrid HF-DFT SCF calculation will be
 performed using Pulay DIIS extrapolation
 Exchange:     0.2000 Hartree-Fock + 0.0800 Slater + 0.7200 B88
 Correlation:  0.1900 VWN1RPA + 0.8100 LYP
 Using SG-1 standard quadrature grid
 SCF converges when DIIS error is below 1.0E-08
 Geometry optimization detected.  Setting ReadMinima to 0
 Setting SaveMinima to 0
 ---------------------------------------
  Cycle       Energy         DIIS Error
 ---------------------------------------
    1   -1104.5786111316      1.67E-04
    2   -1104.5710958229      2.69E-05
    3   -1104.5710815046      5.00E-05
    4   -1104.5711015149      1.01E-05
    5   -1104.5711022976      9.23E-07
    6   -1104.5711023072      4.89E-07
    7   -1104.5711023117      2.35E-07
    8   -1104.5711023127      7.91E-08
    9   -1104.5711023133      6.49E-08
   10   -1104.5711023132      2.08E-08
   11   -1104.5711023131      8.28E-09 Convergence criterion met
 ---------------------------------------
 <S^2> = 0.7688
 SCF time:  CPU 7.56 s  wall 7.15 s
 SCF   energy in the final basis set = -1104.5711023131
 Total energy in the final basis set = -1104.5711023131
 
 --------------------------------------------------------------
 
                    Orbital Energies (a.u.)
 --------------------------------------------------------------
 
 Alpha MOs
 -- Occupied --
-89.098 -89.098 -10.432 -10.432 -10.418 -10.418 -10.393 -10.393
-10.379 -10.379  -8.157  -8.157  -6.122  -6.121  -6.118  -6.118
 -6.114  -6.114  -1.086  -1.061  -0.959  -0.934  -0.921  -0.880
 -0.789  -0.758  -0.725  -0.712  -0.703  -0.649  -0.596  -0.593
 -0.591  -0.587  -0.577  -0.555  -0.550  -0.538  -0.519  -0.473
 -0.443  -0.435  -0.391
 -- Virtual --
 -0.249  -0.180  -0.172  -0.143  -0.127  -0.123  -0.112  -0.106
 -0.101  -0.097  -0.092  -0.080  -0.075  -0.071  -0.067  -0.057
 -0.052  -0.048  -0.041  -0.028  -0.022  -0.018  -0.011  -0.008
 -0.005  -0.001   0.009   0.015   0.016   0.018   0.020   0.025
  0.031   0.032   0.037   0.037   0.046   0.055   0.060   0.060
  0.069   0.071   0.079   0.081   0.084   0.097   0.102   0.107
  0.113   0.139   0.149   0.151   0.152   0.162   0.170   0.170
  0.179   0.180   0.203   0.211   0.233   0.236   0.254   0.280
  0.286   0.310   0.336   0.381   0.391   0.401   0.404   0.435
  0.438   0.459   0.471   0.480   0.480   0.493   0.508   0.527
  0.532   0.554   0.557   0.561   0.573   0.588   0.618   0.624
  0.636   0.642   0.661   0.663   0.708   0.760   0.763   0.776
  0.785   0.786   0.814   0.829   0.836   0.837   0.852   0.860
  0.862   0.874   0.911   0.918   0.938   0.954   0.986   0.995
  1.028   1.048   1.053   1.068   1.081   1.164   1.166   1.172
  1.175   1.181   1.185   1.285   1.330   1.362   1.366   1.394
  1.474   1.511   1.523   1.612   1.647   1.711   1.729   1.759
  1.762   1.818   1.827   1.828   1.831   1.896   1.911   1.913
  1.943   1.994   2.017   2.057   2.074   2.114   2.123   2.189
  2.200   2.232   2.270   2.300   2.307   2.324   2.328   2.370
  2.375   2.384   2.394   2.420   2.514   2.515   2.547   2.566
  2.640   2.683   2.779   2.801   2.968   3.041   3.109   3.110
  3.219   3.257   3.535   3.587   3.766   3.851   4.041   4.109
  4.119   4.167   4.217   4.357   4.468   4.557
 
 Beta MOs
 -- Occupied --
-89.098 -89.098 -10.430 -10.430 -10.414 -10.414 -10.391 -10.391
-10.379 -10.379  -8.158  -8.157  -6.122  -6.122  -6.118  -6.118
 -6.115  -6.115  -1.080  -1.055  -0.952  -0.931  -0.918  -0.870
 -0.784  -0.754  -0.721  -0.709  -0.701  -0.646  -0.594  -0.588
 -0.585  -0.579  -0.574  -0.548  -0.539  -0.537  -0.518  -0.445
 -0.439  -0.431
 -- Virtual --
 -0.325  -0.227  -0.178  -0.155  -0.132  -0.126  -0.121  -0.110
 -0.106  -0.100  -0.092  -0.083  -0.079  -0.074  -0.070  -0.066
 -0.056  -0.050  -0.047  -0.040  -0.027  -0.022  -0.015  -0.010
 -0.007  -0.004   0.001   0.009   0.016   0.017   0.018   0.021
  0.026   0.031   0.034   0.037   0.039   0.046   0.056   0.061
  0.063   0.071   0.072   0.081   0.083   0.085   0.099   0.102
  0.108   0.113   0.141   0.149   0.152   0.153   0.164   0.171
  0.171   0.181   0.181   0.204   0.213   0.234   0.238   0.256
  0.281   0.288   0.312   0.335   0.381   0.394   0.402   0.405
  0.436   0.440   0.460   0.482   0.485   0.492   0.498   0.509
  0.528   0.542   0.556   0.558   0.562   0.575   0.598   0.619
  0.625   0.643   0.643   0.668   0.669   0.709   0.762   0.764
  0.781   0.788   0.789   0.817   0.830   0.838   0.838   0.854
  0.861   0.864   0.875   0.913   0.920   0.938   0.956   0.989
  1.000   1.032   1.052   1.056   1.078   1.083   1.168   1.171
  1.177   1.182   1.183   1.196   1.288   1.333   1.371   1.372
  1.403   1.479   1.525   1.537   1.621   1.649   1.714   1.731
  1.762   1.763   1.823   1.832   1.833   1.837   1.900   1.915
  1.922   1.954   2.007   2.025   2.069   2.081   2.117   2.127
  2.194   2.203   2.237   2.273   2.308   2.308   2.325   2.335
  2.377   2.379   2.387   2.398   2.425   2.515   2.519   2.552
  2.569   2.645   2.685   2.782   2.803   2.969   3.043   3.110
  3.111   3.221   3.259   3.537   3.589   3.766   3.851   4.047
  4.116   4.122   4.170   4.225   4.364   4.471   4.561
 --------------------------------------------------------------
 
          Ground-State Mulliken Net Atomic Charges

     Atom                 Charge (a.u.)    Spin (a.u.)
  --------------------------------------------------------
      1 S                    -0.039230      -0.057969
      2 C                     0.111523       0.340833
      3 H                     0.259194      -0.016945
      4 C                    -0.448513      -0.053855
      5 H                     0.172573       0.001352
      6 C                     0.381195       0.171205
      7 H                     0.141162      -0.010596
      8 C                    -0.076696       0.126034
      9 C                    -0.073173       0.126072
     10 C                     0.373434       0.171065
     11 H                     0.140601      -0.010607
     12 C                    -0.446291      -0.053737
     13 H                     0.172559       0.001354
     14 C                     0.110059       0.340562
     15 H                     0.259204      -0.016941
     16 S                    -0.037600      -0.057827
  --------------------------------------------------------
  Sum of atomic charges =     1.000000
  Sum of spin   charges =     1.000000

 -----------------------------------------------------------------
                    Cartesian Multipole Moments
 -----------------------------------------------------------------
    Charge (ESU x 10^10)
                 4.8032
    Dipole Moment (Debye)
         X      -3.2460      Y       0.1800      Z     -10.2235
       Tot      10.7280
    Quadrupole Moments (Debye-Ang)
        XX     -28.9841     XY      -0.7484     YY     -73.3531
        XZ      20.8158     YZ      -0.1276     ZZ     -26.7836
    Octopole Moments (Debye-Ang^2)
       XXX      83.2019    XXY      -0.5848    XYY      62.2330
       YYY     -10.6771    XXZ      22.8915    XYZ       2.1276
       YYZ     133.2123    XZZ     -16.7201    YZZ      -3.0475
       ZZZ     200.9629
    Hexadecapole Moments (Debye-Ang^3)
      XXXX   -1310.0178   XXXY       4.5031   XXYY    -367.1825
      XYYY      20.7846   YYYY     -88.0740   XXXZ    -264.1606
      XXYZ      -1.8340   XYYZ    -222.8969   YYYZ      16.6795
      XXZZ    -336.7882   XYZZ       1.0256   YYZZ    -419.1791
      XZZZ    -272.4982   YZZZ      15.9918   ZZZZ   -1458.8550
 -----------------------------------------------------------------
 Calculating analytic gradient of the SCF energy
 Gradient of SCF Energy
            1           2           3           4           5           6
    1  -0.0002158   0.0005794  -0.0001060  -0.0001327  -0.0000138  -0.0001333
    2   0.0000440  -0.0000483   0.0000354   0.0000814  -0.0000580  -0.0002602
    3   0.0001073  -0.0002944   0.0000528   0.0002392  -0.0000998  -0.0000423
            7           8           9          10          11          12
    1   0.0001810  -0.0003658   0.0003216   0.0001125  -0.0001582  -0.0001451
    2   0.0001710   0.0000991  -0.0000906   0.0002559  -0.0001741  -0.0000707
    3   0.0000630  -0.0001459   0.0002190   0.0000953  -0.0001131   0.0002483
           13          14          15          16
    1   0.0000920  -0.0000512   0.0000099   0.0000257
    2   0.0000531   0.0000173  -0.0000275  -0.0000277
    3  -0.0000401  -0.0006480   0.0001202   0.0002383
 Max gradient component =       6.480E-04
 RMS gradient           =       1.950E-04
 Gradient time:  CPU 1.98 s  wall 1.95 s
 Geometry Optimization Parameters
   NAtoms,    NIC,     NZ,  NCons,   NDum,   NFix, NCnnct, MaxDiis
       16     111       0       1       0       0       0       0

 Cartesian Hessian Update
 Hessian Updated using BFGS Update


** CONSTRAINED OPTIMIZATION IN DELOCALIZED INTERNAL COORDINATES **
   Searching for a Minimum

   Optimization Cycle:   4

                       Coordinates (Angstroms)
     ATOM                X               Y               Z
      1  S         0.0148528867    0.0712493483    0.0693930561
      2  C         1.7289013723    0.0309856998   -0.0237587423
      3  H         2.3140434001    0.0388253466    0.8880699102
      4  C         2.2066499955   -0.0085630357   -1.3344125567
      5  H         3.2618130175   -0.0382563193   -1.5777084728
      6  C         1.1804349753   -0.0064112113   -2.2750549662
      7  H         1.3449310171   -0.0296948168   -3.3451832833
      8  C        -0.1127432346    0.0353426328   -1.6916948197
      9  C        -1.3447423257    0.0464786089   -2.3742164178
     10  C        -1.5352189914    0.0181207081   -3.7801508262
     11  H        -0.7149511050   -0.0211092875   -4.4860803048
     12  C        -2.8763062451    0.0403504506   -4.1527679254
     13  H        -3.2292800733    0.0253326752   -5.1768359709
     14  C        -3.7344393049    0.0856361380   -3.0532838091
     15  H        -4.8176471265    0.1094243356   -3.0666297009
     16  S        -2.9059926177    0.1014394068   -1.5495059502
   Point Group: c1    Number of degrees of freedom:    42


   Energy is  -1104.571102313

              Constraints and their Current Values
                                        Value     Constraint
   Dihedral:        6   8   9  10        0.000        0.000
 Hessian Updated using BFGS Update

 41 Hessian modes will be used to form the next step
  Hessian Eigenvalues:
     0.040538    0.044999    0.045000    0.045000    0.045000    0.045000
     0.045001    0.045002    0.045003    0.045004    0.045012    0.045082
     0.130372    0.159745    0.159947    0.159992    0.160000    0.160498
     0.221282    0.221570    0.237829    0.238045    0.249988    0.268001
     0.288187    0.294455    0.300153    0.312571    0.354370    0.354803
     0.355129    0.355192    0.358274    0.359093    0.376989    0.404881
     0.435286    0.444897    0.463583    0.497452    0.497970

 Minimum Search - Taking Simple RFO Step
 Searching for Lamda that Minimizes Along All modes
 Value Taken    Lamda =  -0.00000615
 Step Taken.  Stepsize is  0.008827

                             Maximum     Tolerance    Cnvgd?
         Gradient           0.000420      0.000300      NO
         Displacement       0.003765      0.001200      NO
         Energy change     -0.000034      0.000001      NO


 New Cartesian Coordinates Obtained by Inverse Iteration

 Displacement from previous Coordinates is:  0.013186
 ----------------------------------------------------------------
             Standard Nuclear Orientation (Angstroms)
    I     Atom           X                Y                Z
 ----------------------------------------------------------------
    1      S       0.0142811696     0.0711948246     0.0679805444
    2      C       1.7275049448     0.0313251597    -0.0234595693
    3      H       2.3126592563     0.0387236663     0.8883709356
    4      C       2.2069959226    -0.0082453381    -1.3338930607
    5      H       3.2626731301    -0.0378508126    -1.5748857397
    6      C       1.1817359040    -0.0063011131    -2.2755181743
    7      H       1.3452191265    -0.0316888665    -3.3458231722
    8      C      -0.1118818550     0.0353041323    -1.6929476003
    9      C      -1.3441592869     0.0462814755    -2.3755934667
   10      C      -1.5355217655     0.0178885129    -3.7814982458
   11      H      -0.7144763437    -0.0192394157    -4.4867419983
   12      C      -2.8769319009     0.0401162061    -4.1527802445
   13      H      -3.2321403086     0.0251827274    -5.1760623436
   14      C      -3.7339660196     0.0854117433    -3.0519273065
   15      H      -4.8171670741     0.1097259032    -3.0652881444
   16      S      -2.9045192597     0.1013218747    -1.5497531939
 ----------------------------------------------------------------
 Nuclear Repulsion Energy =   632.2936565363 hartrees
 There are       43 alpha and       42 beta electrons
 Applying Cartesian multipole field
    Component          Value
    ---------          -----
     (2,0,0)        1.00000E-11
     (0,2,0)        2.00000E-11
     (0,0,2)       -3.00000E-12
 Nucleus-field energy     =     0.0000000095 hartrees
 Requested basis set is 6-31++G(d,p)
 There are 76 shells and 234 basis functions
 A cutoff of  1.0D-12 yielded   2531 shell pairs
 There are     24885 function pairs

 Q-Chem warning in module /project/projectdirs/jcesr/qchem/qc44/cnl_qc441/compile/cori/qc_src/libqints/qchem/aobasis.C, line 68:

 Using reconstructed effective core potential

 Smallest overlap matrix eigenvalue = 3.98E-07
 Linear dependence detected in AO basis
 Number of orthogonalized atomic orbitals = 233
 Maximum deviation from orthogonality = 1.285E-10
 Guess MOs from SCF MO coefficient file
 Reading MOs from coefficient file
 Reading MOs from coefficient file
 An unrestricted hybrid HF-DFT SCF calculation will be
 performed using Pulay DIIS extrapolation
 Exchange:     0.2000 Hartree-Fock + 0.0800 Slater + 0.7200 B88
 Correlation:  0.1900 VWN1RPA + 0.8100 LYP
 Using SG-1 standard quadrature grid
 SCF converges when DIIS error is below 1.0E-08
 Geometry optimization detected.  Setting ReadMinima to 0
 Setting SaveMinima to 0
 ---------------------------------------
  Cycle       Energy         DIIS Error
 ---------------------------------------
    1   -1104.5732214890      6.16E-05
    2   -1104.5711049054      1.05E-05
    3   -1104.5711021978      2.10E-05
    4   -1104.5711058037      3.08E-06
    5   -1104.5711058746      5.32E-07
    6   -1104.5711058784      3.14E-07
    7   -1104.5711058790      1.17E-07
    8   -1104.5711058803      5.62E-08
    9   -1104.5711058811      3.91E-08
   10   -1104.5711058814      9.11E-09 Convergence criterion met
 ---------------------------------------
 <S^2> = 0.7687
 SCF time:  CPU 6.76 s  wall 6.45 s
 SCF   energy in the final basis set = -1104.5711058814
 Total energy in the final basis set = -1104.5711058814
 
 --------------------------------------------------------------
 
                    Orbital Energies (a.u.)
 --------------------------------------------------------------
 
 Alpha MOs
 -- Occupied --
-89.098 -89.098 -10.432 -10.432 -10.418 -10.418 -10.393 -10.393
-10.379 -10.379  -8.157  -8.157  -6.122  -6.122  -6.118  -6.118
 -6.114  -6.114  -1.086  -1.061  -0.959  -0.934  -0.921  -0.880
 -0.789  -0.758  -0.725  -0.711  -0.703  -0.649  -0.596  -0.593
 -0.591  -0.587  -0.577  -0.555  -0.550  -0.538  -0.519  -0.473
 -0.443  -0.436  -0.391
 -- Virtual --
 -0.249  -0.180  -0.172  -0.143  -0.127  -0.123  -0.111  -0.106
 -0.101  -0.097  -0.092  -0.080  -0.075  -0.071  -0.067  -0.057
 -0.052  -0.048  -0.041  -0.028  -0.022  -0.018  -0.011  -0.008
 -0.005  -0.001   0.009   0.015   0.016   0.018   0.020   0.025
  0.031   0.032   0.037   0.037   0.046   0.055   0.060   0.060
  0.069   0.071   0.079   0.081   0.084   0.097   0.102   0.107
  0.113   0.139   0.149   0.151   0.152   0.162   0.169   0.170
  0.179   0.180   0.203   0.211   0.234   0.236   0.254   0.280
  0.286   0.310   0.336   0.381   0.391   0.401   0.404   0.435
  0.438   0.459   0.471   0.480   0.480   0.493   0.508   0.528
  0.532   0.554   0.557   0.561   0.573   0.588   0.618   0.624
  0.636   0.642   0.661   0.663   0.708   0.760   0.763   0.776
  0.785   0.786   0.814   0.829   0.836   0.837   0.852   0.860
  0.863   0.874   0.911   0.918   0.938   0.955   0.986   0.995
  1.028   1.048   1.052   1.068   1.081   1.164   1.166   1.173
  1.175   1.181   1.186   1.285   1.329   1.362   1.366   1.395
  1.474   1.511   1.523   1.612   1.647   1.711   1.730   1.759
  1.761   1.818   1.827   1.828   1.831   1.895   1.911   1.913
  1.943   1.995   2.017   2.057   2.074   2.113   2.123   2.189
  2.201   2.231   2.270   2.300   2.307   2.324   2.328   2.369
  2.375   2.384   2.394   2.420   2.514   2.515   2.547   2.566
  2.639   2.683   2.779   2.801   2.968   3.041   3.109   3.110
  3.219   3.257   3.535   3.587   3.766   3.851   4.041   4.109
  4.119   4.168   4.217   4.358   4.468   4.557
 
 Beta MOs
 -- Occupied --
-89.098 -89.098 -10.430 -10.430 -10.414 -10.414 -10.391 -10.391
-10.379 -10.379  -8.158  -8.158  -6.122  -6.122  -6.118  -6.118
 -6.115  -6.115  -1.081  -1.055  -0.952  -0.932  -0.919  -0.870
 -0.784  -0.754  -0.721  -0.708  -0.701  -0.646  -0.594  -0.588
 -0.585  -0.579  -0.575  -0.548  -0.539  -0.537  -0.518  -0.445
 -0.439  -0.431
 -- Virtual --
 -0.325  -0.227  -0.178  -0.155  -0.132  -0.126  -0.121  -0.110
 -0.106  -0.100  -0.092  -0.083  -0.079  -0.074  -0.070  -0.066
 -0.056  -0.050  -0.047  -0.040  -0.027  -0.022  -0.015  -0.010
 -0.007  -0.004   0.001   0.009   0.016   0.017   0.019   0.021
  0.026   0.031   0.034   0.037   0.039   0.046   0.056   0.061
  0.063   0.071   0.072   0.081   0.083   0.085   0.099   0.102
  0.108   0.113   0.141   0.149   0.152   0.153   0.164   0.171
  0.171   0.181   0.181   0.204   0.212   0.234   0.238   0.256
  0.281   0.288   0.312   0.335   0.381   0.394   0.402   0.405
  0.436   0.440   0.460   0.482   0.485   0.492   0.498   0.509
  0.529   0.542   0.556   0.558   0.562   0.575   0.598   0.619
  0.624   0.643   0.643   0.667   0.669   0.709   0.761   0.764
  0.781   0.788   0.789   0.817   0.830   0.838   0.838   0.854
  0.861   0.864   0.875   0.913   0.920   0.939   0.956   0.989
  1.000   1.032   1.052   1.056   1.078   1.083   1.168   1.171
  1.177   1.182   1.183   1.196   1.288   1.333   1.371   1.373
  1.403   1.478   1.526   1.537   1.621   1.648   1.714   1.731
  1.762   1.763   1.823   1.832   1.833   1.837   1.899   1.915
  1.922   1.953   2.008   2.025   2.069   2.081   2.116   2.127
  2.194   2.204   2.237   2.273   2.308   2.308   2.325   2.334
  2.376   2.379   2.387   2.398   2.425   2.515   2.519   2.552
  2.569   2.644   2.685   2.782   2.803   2.969   3.043   3.110
  3.111   3.220   3.258   3.537   3.589   3.766   3.851   4.047
  4.116   4.122   4.170   4.225   4.365   4.471   4.561
 --------------------------------------------------------------
 
          Ground-State Mulliken Net Atomic Charges

     Atom                 Charge (a.u.)    Spin (a.u.)
  --------------------------------------------------------
      1 S                    -0.039511      -0.057727
      2 C                     0.111508       0.340618
      3 H                     0.259211      -0.016943
      4 C                    -0.446735      -0.053353
      5 H                     0.172610       0.001326
      6 C                     0.378719       0.170481
      7 H                     0.141167      -0.010560
      8 C                    -0.075784       0.126203
      9 C                    -0.072144       0.126262
     10 C                     0.370860       0.170337
     11 H                     0.140605      -0.010572
     12 C                    -0.444465      -0.053240
     13 H                     0.172597       0.001328
     14 C                     0.110004       0.340371
     15 H                     0.259221      -0.016941
     16 S                    -0.037863      -0.057590
  --------------------------------------------------------
  Sum of atomic charges =     1.000000
  Sum of spin   charges =     1.000000

 -----------------------------------------------------------------
                    Cartesian Multipole Moments
 -----------------------------------------------------------------
    Charge (ESU x 10^10)
                 4.8032
    Dipole Moment (Debye)
         X      -3.2482      Y       0.1801      Z     -10.2198
       Tot      10.7251
    Quadrupole Moments (Debye-Ang)
        XX     -28.9828     XY      -0.7524     YY     -73.3503
        XZ      20.8190     YZ      -0.1301     ZZ     -26.8029
    Octopole Moments (Debye-Ang^2)
       XXX      83.1500    XXY      -0.5758    XYY      62.2086
       YYY     -10.6674    XXZ      22.9245    XYZ       2.1401
       YYZ     133.2467    XZZ     -16.7477    YZZ      -3.0324
       ZZZ     201.1401
    Hexadecapole Moments (Debye-Ang^3)
      XXXX   -1309.4372   XXXY       4.3980   XXYY    -367.0583
      XYYY      20.7104   YYYY     -88.0612   XXXZ    -263.9646
      XXYZ      -1.8570   XYYZ    -222.8557   YYYZ      16.6402
      XXZZ    -336.7392   XYZZ       0.9533   YYZZ    -419.2665
      XZZZ    -272.4023   YZZZ      15.8753   ZZZZ   -1459.7364
 -----------------------------------------------------------------
 Calculating analytic gradient of the SCF energy
 Gradient of SCF Energy
            1           2           3           4           5           6
    1   0.0000735   0.0000655  -0.0000402  -0.0000604   0.0000045   0.0000895
    2   0.0000058  -0.0000131   0.0000147   0.0000535  -0.0000465  -0.0001384
    3  -0.0000559  -0.0000402   0.0000123   0.0000415  -0.0000039  -0.0000049
            7           8           9          10          11          12
    1   0.0000098  -0.0001623   0.0000502  -0.0000462   0.0000030  -0.0000007
    2   0.0000900   0.0000942  -0.0000817   0.0001274  -0.0000910  -0.0000530
    3  -0.0000149   0.0000456   0.0001619  -0.0000844  -0.0000123   0.0000777
           13          14          15          16
    1  -0.0000021   0.0000003   0.0000101   0.0000056
    2   0.0000448   0.0000117  -0.0000102  -0.0000082
    3  -0.0000044  -0.0000722   0.0000449  -0.0000906
 Max gradient component =       1.623E-04
 RMS gradient           =       6.391E-05
 Gradient time:  CPU 2.00 s  wall 1.95 s
 Geometry Optimization Parameters
   NAtoms,    NIC,     NZ,  NCons,   NDum,   NFix, NCnnct, MaxDiis
       16     111       0       1       0       0       0       0

 Cartesian Hessian Update
 Hessian Updated using BFGS Update


** CONSTRAINED OPTIMIZATION IN DELOCALIZED INTERNAL COORDINATES **
   Searching for a Minimum

   Optimization Cycle:   5

                       Coordinates (Angstroms)
     ATOM                X               Y               Z
      1  S         0.0142811696    0.0711948246    0.0679805444
      2  C         1.7275049448    0.0313251597   -0.0234595693
      3  H         2.3126592563    0.0387236663    0.8883709356
      4  C         2.2069959226   -0.0082453381   -1.3338930607
      5  H         3.2626731301   -0.0378508126   -1.5748857397
      6  C         1.1817359040   -0.0063011131   -2.2755181743
      7  H         1.3452191265   -0.0316888665   -3.3458231722
      8  C        -0.1118818550    0.0353041323   -1.6929476003
      9  C        -1.3441592869    0.0462814755   -2.3755934667
     10  C        -1.5355217655    0.0178885129   -3.7814982458
     11  H        -0.7144763437   -0.0192394157   -4.4867419983
     12  C        -2.8769319009    0.0401162061   -4.1527802445
     13  H        -3.2321403086    0.0251827274   -5.1760623436
     14  C        -3.7339660196    0.0854117433   -3.0519273065
     15  H        -4.8171670741    0.1097259032   -3.0652881444
     16  S        -2.9045192597    0.1013218747   -1.5497531939
   Point Group: c1    Number of degrees of freedom:    42


   Energy is  -1104.571105881

              Constraints and their Current Values
                                        Value     Constraint
   Dihedral:        6   8   9  10        0.000        0.000
 Hessian Updated using BFGS Update

 41 Hessian modes will be used to form the next step
  Hessian Eigenvalues:
     0.032017    0.044943    0.045000    0.045000    0.045000    0.045001
     0.045001    0.045002    0.045004    0.045005    0.045012    0.045194
     0.133741    0.159827    0.159948    0.159992    0.160000    0.162137
     0.221282    0.221476    0.233947    0.237842    0.249987    0.275858
     0.294242    0.294474    0.301621    0.312573    0.354790    0.355129
     0.355177    0.355370    0.358275    0.359221    0.376996    0.404884
     0.434307    0.446505    0.463582    0.488165    0.497935

 Minimum Search - Taking Simple RFO Step
 Searching for Lamda that Minimizes Along All modes
 Value Taken    Lamda =   0.00000000
 Step Taken.  Stepsize is  0.003902

                             Maximum     Tolerance    Cnvgd?
         Gradient           0.000121      0.000300     YES
         Displacement       0.002086      0.001200      NO
         Energy change     -0.000004      0.000001      NO


 New Cartesian Coordinates Obtained by Inverse Iteration

 Displacement from previous Coordinates is:  0.004006
 ----------------------------------------------------------------
             Standard Nuclear Orientation (Angstroms)
    I     Atom           X                Y                Z
 ----------------------------------------------------------------
    1      S       0.0140134051     0.0712049468     0.0678310869
    2      C       1.7271992707     0.0314894919    -0.0234381937
    3      H       2.3126235156     0.0388336776     0.8882351975
    4      C       2.2069889280    -0.0081941077    -1.3338550306
    5      H       3.2627368675    -0.0375746879    -1.5745195141
    6      C       1.1818319234    -0.0064610132    -2.2755914918
    7      H       1.3451297983    -0.0330125431    -3.3458781598
    8      C      -0.1117194105     0.0351916103    -1.6931609105
    9      C      -1.3440713952     0.0463029026    -2.3758394641
   10      C      -1.5355084563     0.0180227932    -3.7816199345
   11      H      -0.7143380974    -0.0179674942    -4.4867469469
   12      C      -2.8769659961     0.0401067698    -4.1527524600
   13      H      -3.2324799455     0.0249920784    -5.1759164296
   14      C      -3.7338339196     0.0852834879    -3.0516493018
   15      H      -4.8170431190     0.1096680124    -3.0653213884
   16      S      -2.9042577292     0.1012647551    -1.5495978385
 ----------------------------------------------------------------
 Nuclear Repulsion Energy =   632.3063616411 hartrees
 There are       43 alpha and       42 beta electrons
 Applying Cartesian multipole field
    Component          Value
    ---------          -----
     (2,0,0)        1.00000E-11
     (0,2,0)        2.00000E-11
     (0,0,2)       -3.00000E-12
 Nucleus-field energy     =     0.0000000095 hartrees
 Requested basis set is 6-31++G(d,p)
 There are 76 shells and 234 basis functions
 A cutoff of  1.0D-12 yielded   2531 shell pairs
 There are     24885 function pairs

 Q-Chem warning in module /project/projectdirs/jcesr/qchem/qc44/cnl_qc441/compile/cori/qc_src/libqints/qchem/aobasis.C, line 68:

 Using reconstructed effective core potential

 Smallest overlap matrix eigenvalue = 3.98E-07
 Linear dependence detected in AO basis
 Number of orthogonalized atomic orbitals = 233
 Maximum deviation from orthogonality = 7.556E-11
 Guess MOs from SCF MO coefficient file
 Reading MOs from coefficient file
 Reading MOs from coefficient file
 An unrestricted hybrid HF-DFT SCF calculation will be
 performed using Pulay DIIS extrapolation
 Exchange:     0.2000 Hartree-Fock + 0.0800 Slater + 0.7200 B88
[...]
    8   -1104.5711063142      2.04E-08
    9   -1104.5711063144      8.09E-09 Convergence criterion met
 ---------------------------------------
 <S^2> = 0.7687
 SCF time:  CPU 5.98 s  wall 5.66 s
 SCF   energy in the final basis set = -1104.5711063144
 Total energy in the final basis set = -1104.5711063144
 
 --------------------------------------------------------------
 
                    Orbital Energies (a.u.)
 --------------------------------------------------------------
 
 Alpha MOs
 -- Occupied --
-89.098 -89.098 -10.432 -10.432 -10.418 -10.418 -10.393 -10.393
-10.379 -10.379  -8.157  -8.157  -6.122  -6.122  -6.118  -6.118
 -6.114  -6.114  -1.086  -1.061  -0.959  -0.934  -0.921  -0.880
 -0.789  -0.758  -0.725  -0.711  -0.703  -0.649  -0.596  -0.593
 -0.591  -0.587  -0.577  -0.555  -0.550  -0.538  -0.519  -0.473
 -0.443  -0.436  -0.391
 -- Virtual --
 -0.249  -0.180  -0.172  -0.143  -0.127  -0.123  -0.111  -0.106
 -0.101  -0.097  -0.092  -0.080  -0.075  -0.071  -0.067  -0.057
 -0.052  -0.048  -0.041  -0.028  -0.022  -0.018  -0.011  -0.008
 -0.005  -0.001   0.009   0.015   0.016   0.018   0.020   0.025
  0.031   0.032   0.037   0.037   0.046   0.055   0.060   0.060
  0.069   0.071   0.079   0.081   0.084   0.097   0.102   0.107
  0.113   0.139   0.149   0.151   0.152   0.162   0.169   0.170
  0.179   0.180   0.203   0.211   0.234   0.236   0.254   0.280
  0.286   0.310   0.336   0.381   0.391   0.401   0.404   0.435
  0.438   0.459   0.471   0.480   0.480   0.493   0.508   0.528
  0.532   0.554   0.557   0.561   0.573   0.588   0.618   0.624
  0.636   0.642   0.661   0.663   0.708   0.760   0.763   0.776
  0.785   0.786   0.814   0.829   0.836   0.838   0.852   0.860
  0.863   0.874   0.911   0.918   0.938   0.955   0.986   0.995
  1.028   1.048   1.052   1.068   1.081   1.164   1.166   1.173
  1.176   1.181   1.186   1.285   1.329   1.362   1.366   1.395
  1.474   1.511   1.523   1.612   1.647   1.711   1.730   1.759
  1.761   1.818   1.827   1.828   1.831   1.895   1.911   1.913
  1.943   1.995   2.017   2.057   2.074   2.113   2.123   2.189
  2.201   2.231   2.270   2.300   2.307   2.324   2.328   2.369
  2.375   2.384   2.394   2.420   2.514   2.515   2.547   2.566
  2.639   2.683   2.779   2.801   2.968   3.041   3.109   3.110
  3.219   3.257   3.535   3.587   3.766   3.851   4.041   4.109
  4.119   4.168   4.217   4.358   4.468   4.557
 
 Beta MOs
 -- Occupied --
-89.098 -89.098 -10.430 -10.430 -10.414 -10.414 -10.391 -10.391
-10.379 -10.379  -8.158  -8.158  -6.122  -6.122  -6.118  -6.118
 -6.115  -6.115  -1.081  -1.055  -0.952  -0.932  -0.919  -0.870
 -0.784  -0.754  -0.721  -0.708  -0.701  -0.646  -0.594  -0.588
 -0.585  -0.579  -0.574  -0.548  -0.539  -0.538  -0.518  -0.445
 -0.439  -0.431
 -- Virtual --
 -0.325  -0.227  -0.178  -0.155  -0.132  -0.126  -0.121  -0.110
 -0.106  -0.100  -0.092  -0.083  -0.079  -0.074  -0.070  -0.066
 -0.056  -0.050  -0.047  -0.040  -0.027  -0.022  -0.015  -0.010
 -0.007  -0.004   0.001   0.009   0.016   0.017   0.019   0.021
  0.026   0.031   0.034   0.037   0.039   0.046   0.056   0.061
  0.063   0.071   0.072   0.081   0.083   0.085   0.099   0.102
  0.108   0.113   0.141   0.149   0.152   0.153   0.164   0.171
  0.171   0.181   0.181   0.204   0.212   0.234   0.238   0.256
  0.281   0.288   0.312   0.335   0.381   0.394   0.402   0.405
  0.436   0.440   0.460   0.482   0.485   0.492   0.498   0.509
  0.529   0.542   0.556   0.558   0.562   0.575   0.598   0.619
  0.624   0.643   0.643   0.667   0.669   0.709   0.761   0.764
  0.781   0.788   0.789   0.817   0.830   0.838   0.838   0.854
  0.861   0.864   0.876   0.913   0.920   0.939   0.956   0.989
  1.000   1.031   1.052   1.056   1.078   1.083   1.168   1.171
  1.177   1.182   1.183   1.196   1.288   1.333   1.371   1.373
  1.403   1.478   1.525   1.537   1.621   1.648   1.714   1.731
  1.762   1.763   1.823   1.832   1.833   1.837   1.899   1.915
  1.922   1.953   2.008   2.025   2.069   2.081   2.116   2.127
  2.194   2.204   2.236   2.273   2.308   2.308   2.325   2.334
  2.376   2.379   2.387   2.398   2.425   2.515   2.519   2.552
  2.569   2.644   2.685   2.782   2.803   2.969   3.043   3.110
  3.111   3.220   3.258   3.537   3.589   3.766   3.851   4.047
  4.116   4.122   4.170   4.225   4.365   4.471   4.561
 --------------------------------------------------------------
 
          Ground-State Mulliken Net Atomic Charges

     Atom                 Charge (a.u.)    Spin (a.u.)
  --------------------------------------------------------
      1 S                    -0.039610      -0.057667
      2 C                     0.111448       0.340593
      3 H                     0.259181      -0.016945
      4 C                    -0.446394      -0.053238
      5 H                     0.172616       0.001320
      6 C                     0.378406       0.170319
      7 H                     0.141150      -0.010551
      8 C                    -0.075621       0.126213
      9 C                    -0.071956       0.126271
     10 C                     0.370536       0.170178
     11 H                     0.140585      -0.010563
     12 C                    -0.444113      -0.053128
     13 H                     0.172604       0.001322
     14 C                     0.109941       0.340349
     15 H                     0.259191      -0.016943
     16 S                    -0.037964      -0.057531
  --------------------------------------------------------
  Sum of atomic charges =     1.000000
  Sum of spin   charges =     1.000000

 -----------------------------------------------------------------
                    Cartesian Multipole Moments
 -----------------------------------------------------------------
    Charge (ESU x 10^10)
                 4.8032
    Dipole Moment (Debye)
         X      -3.2484      Y       0.1802      Z     -10.2195
       Tot      10.7248
    Quadrupole Moments (Debye-Ang)
        XX     -28.9839     XY      -0.7525     YY     -73.3502
        XZ      20.8183     YZ      -0.1302     ZZ     -26.8045
    Octopole Moments (Debye-Ang^2)
       XXX      83.1615    XXY      -0.5763    XYY      62.2081
       YYY     -10.6652    XXZ      22.9284    XYZ       2.1424
       YYZ     133.2480    XZZ     -16.7536    YZZ      -3.0286
       ZZZ     201.1481
    Hexadecapole Moments (Debye-Ang^3)
      XXXX   -1309.3347   XXXY       4.4047   XXYY    -367.0306
      XYYY      20.6957   YYYY     -88.0598   XXXZ    -263.9182
      XXYZ      -1.8413   XYYZ    -222.8400   YYYZ      16.6314
      XXZZ    -336.6996   XYZZ       0.9409   YYZZ    -419.2645
      XZZZ    -272.3300   YZZZ      15.8405   ZZZZ   -1459.7574
 -----------------------------------------------------------------
 Calculating analytic gradient of the SCF energy
 Gradient of SCF Energy
            1           2           3           4           5           6
    1   0.0000379  -0.0000342  -0.0000026  -0.0000117   0.0000024   0.0000592
    2  -0.0000041  -0.0000058   0.0000069   0.0000327  -0.0000311  -0.0000809
    3  -0.0000365   0.0000064  -0.0000021  -0.0000189   0.0000070   0.0000038
            7           8           9          10          11          12
    1  -0.0000186  -0.0000189  -0.0000244  -0.0000352   0.0000108   0.0000225
    2   0.0000485   0.0000822  -0.0000763   0.0000728  -0.0000484  -0.0000349
    3  -0.0000051   0.0000416   0.0000424  -0.0000526   0.0000159   0.0000021
           13          14          15          16
    1  -0.0000100   0.0000110   0.0000020   0.0000099
    2   0.0000292   0.0000091  -0.0000042   0.0000043
    3   0.0000027   0.0000373   0.0000053  -0.0000495
 Max gradient component =       8.217E-05
 RMS gradient           =       3.399E-05
 Gradient time:  CPU 1.99 s  wall 1.93 s
 Geometry Optimization Parameters
   NAtoms,    NIC,     NZ,  NCons,   NDum,   NFix, NCnnct, MaxDiis
       16     111       0       1       0       0       0       0

 Cartesian Hessian Update
 Hessian Updated using BFGS Update


** CONSTRAINED OPTIMIZATION IN DELOCALIZED INTERNAL COORDINATES **
   Searching for a Minimum

   Optimization Cycle:   6

                       Coordinates (Angstroms)
     ATOM                X               Y               Z
      1  S         0.0140134051    0.0712049468    0.0678310869
      2  C         1.7271992707    0.0314894919   -0.0234381937
      3  H         2.3126235156    0.0388336776    0.8882351975
      4  C         2.2069889280   -0.0081941077   -1.3338550306
      5  H         3.2627368675   -0.0375746879   -1.5745195141
      6  C         1.1818319234   -0.0064610132   -2.2755914918
      7  H         1.3451297983   -0.0330125431   -3.3458781598
      8  C        -0.1117194105    0.0351916103   -1.6931609105
      9  C        -1.3440713952    0.0463029026   -2.3758394641
     10  C        -1.5355084563    0.0180227932   -3.7816199345
     11  H        -0.7143380974   -0.0179674942   -4.4867469469
     12  C        -2.8769659961    0.0401067698   -4.1527524600
     13  H        -3.2324799455    0.0249920784   -5.1759164296
     14  C        -3.7338339196    0.0852834879   -3.0516493018
     15  H        -4.8170431190    0.1096680124   -3.0653213884
     16  S        -2.9042577292    0.1012647551   -1.5495978385
   Point Group: c1    Number of degrees of freedom:    42


   Energy is  -1104.571106314

              Constraints and their Current Values
                                        Value     Constraint
   Dihedral:        6   8   9  10        0.000        0.000
 Hessian Updated using BFGS Update

 40 Hessian modes will be used to form the next step
  Hessian Eigenvalues:
     0.018952    0.044672    0.045000    0.045000    0.045001    0.045002
     0.045003    0.045004    0.045012    0.045014    0.045367    0.146744
     0.158299    0.159947    0.159992    0.160000    0.161149    0.221282
     0.221427    0.237811    0.238420    0.249989    0.270188    0.293687
     0.294491    0.303591    0.312568    0.354791    0.355129    0.355166
     0.355449    0.358276    0.359057    0.378510    0.404888    0.430807
     0.446929    0.463583    0.497743    0.499271

 Minimum Search - Taking Simple RFO Step
 Searching for Lamda that Minimizes Along All modes
 Value Taken    Lamda =   0.00000000
 Step Taken.  Stepsize is  0.003372

                             Maximum     Tolerance    Cnvgd?
         Gradient           0.000052      0.000300     YES
         Displacement       0.001918      0.001200      NO
         Energy change     -0.000000      0.000001     YES

 Final energy is   -1104.57110631443     


 ******************************
 **  OPTIMIZATION CONVERGED  **
 ******************************

                       Coordinates (Angstroms)
     ATOM                X               Y               Z
      1  S         0.0140134051    0.0712049468    0.0678310869
      2  C         1.7271992707    0.0314894919   -0.0234381937
      3  H         2.3126235156    0.0388336776    0.8882351975
      4  C         2.2069889280   -0.0081941077   -1.3338550306
      5  H         3.2627368675   -0.0375746879   -1.5745195141
      6  C         1.1818319234   -0.0064610132   -2.2755914918
      7  H         1.3451297983   -0.0330125431   -3.3458781598
      8  C        -0.1117194105    0.0351916103   -1.6931609105
      9  C        -1.3440713952    0.0463029026   -2.3758394641
     10  C        -1.5355084563    0.0180227932   -3.7816199345
     11  H        -0.7143380974   -0.0179674942   -4.4867469469
     12  C        -2.8769659961    0.0401067698   -4.1527524600
     13  H        -3.2324799455    0.0249920784   -5.1759164296
     14  C        -3.7338339196    0.0852834879   -3.0516493018
     15  H        -4.8170431190    0.1096680124   -3.0653213884
     16  S        -2.9042577292    0.1012647551   -1.5495978385

Z-matrix Print:
$molecule
1 2
S 
C  1 1.716075
H  2 1.083478 1 119.636890
C  2 1.396053 1 113.183514 3 179.997373 0
H  4 1.083230 2 122.974942 1 -179.949173 0
C  4 1.392055 2 112.450170 1 0.005142 0
H  6 1.082998 4 123.882758 2 179.948230 0
C  6 1.419238 4 113.180288 2 0.006987 0
C  8 1.408852 6 126.771916 4 -179.949857 0
C  9 1.419037 8 126.718564 6 0.000000 0
H  10 1.082968 9 122.914821 8 0.113729 0
C  10 1.392026 9 113.191899 8 -179.937292 0
H  12 1.083274 10 124.601157 9 179.966619 0
C  12 1.395955 10 112.441345 9 -0.000929 0
H  14 1.083570 12 127.185191 10 -179.994109 0
S  14 1.715987 12 113.203479 10 0.003331 0
$end

 
 --------------------------------------------------------------
 
                    Orbital Energies (a.u.)
 --------------------------------------------------------------
 
 Alpha MOs
 -- Occupied --
-89.098 -89.098 -10.432 -10.432 -10.418 -10.418 -10.393 -10.393
-10.379 -10.379  -8.157  -8.157  -6.122  -6.122  -6.118  -6.118
 -6.114  -6.114  -1.086  -1.061  -0.959  -0.934  -0.921  -0.880
 -0.789  -0.758  -0.725  -0.711  -0.703  -0.649  -0.596  -0.593
 -0.591  -0.587  -0.577  -0.555  -0.550  -0.538  -0.519  -0.473
 -0.443  -0.436  -0.391
 -- Virtual --
 -0.249  -0.180  -0.172  -0.143  -0.127  -0.123  -0.111  -0.106
 -0.101  -0.097  -0.092  -0.080  -0.075  -0.071  -0.067  -0.057
 -0.052  -0.048  -0.041  -0.028  -0.022  -0.018  -0.011  -0.008
 -0.005  -0.001   0.009   0.015   0.016   0.018   0.020   0.025
  0.031   0.032   0.037   0.037   0.046   0.055   0.060   0.060
  0.069   0.071   0.079   0.081   0.084   0.097   0.102   0.107
  0.113   0.139   0.149   0.151   0.152   0.162   0.169   0.170
  0.179   0.180   0.203   0.211   0.234   0.236   0.254   0.280
  0.286   0.310   0.336   0.381   0.391   0.401   0.404   0.435
  0.438   0.459   0.471   0.480   0.480   0.493   0.508   0.528
  0.532   0.554   0.557   0.561   0.573   0.588   0.618   0.624
  0.636   0.642   0.661   0.663   0.708   0.760   0.763   0.776
  0.785   0.786   0.814   0.829   0.836   0.838   0.852   0.860
  0.863   0.874   0.911   0.918   0.938   0.955   0.986   0.995
  1.028   1.048   1.052   1.068   1.081   1.164   1.166   1.173
  1.176   1.181   1.186   1.285   1.329   1.362   1.366   1.395
  1.474   1.511   1.523   1.612   1.647   1.711   1.730   1.759
  1.761   1.818   1.827   1.828   1.831   1.895   1.911   1.913
  1.943   1.995   2.017   2.057   2.074   2.113   2.123   2.189
  2.201   2.231   2.270   2.300   2.307   2.324   2.328   2.369
  2.375   2.384   2.394   2.420   2.514   2.515   2.547   2.566
  2.639   2.683   2.779   2.801   2.968   3.041   3.109   3.110
  3.219   3.257   3.535   3.587   3.766   3.851   4.041   4.109
  4.119   4.168   4.217   4.358   4.468   4.557
 
 Beta MOs
 -- Occupied --
-89.098 -89.098 -10.430 -10.430 -10.414 -10.414 -10.391 -10.391
-10.379 -10.379  -8.158  -8.158  -6.122  -6.122  -6.118  -6.118
 -6.115  -6.115  -1.081  -1.055  -0.952  -0.932  -0.919  -0.870
 -0.784  -0.754  -0.721  -0.708  -0.701  -0.646  -0.594  -0.588
 -0.585  -0.579  -0.574  -0.548  -0.539  -0.538  -0.518  -0.445
 -0.439  -0.431
 -- Virtual --
 -0.325  -0.227  -0.178  -0.155  -0.132  -0.126  -0.121  -0.110
 -0.106  -0.100  -0.092  -0.083  -0.079  -0.074  -0.070  -0.066
 -0.056  -0.050  -0.047  -0.040  -0.027  -0.022  -0.015  -0.010
 -0.007  -0.004   0.001   0.009   0.016   0.017   0.019   0.021
  0.026   0.031   0.034   0.037   0.039   0.046   0.056   0.061
  0.063   0.071   0.072   0.081   0.083   0.085   0.099   0.102
  0.108   0.113   0.141   0.149   0.152   0.153   0.164   0.171
  0.171   0.181   0.181   0.204   0.212   0.234   0.238   0.256
  0.281   0.288   0.312   0.335   0.381   0.394   0.402   0.405
  0.436   0.440   0.460   0.482   0.485   0.492   0.498   0.509
  0.529   0.542   0.556   0.558   0.562   0.575   0.598   0.619
  0.624   0.643   0.643   0.667   0.669   0.709   0.761   0.764
  0.781   0.788   0.789   0.817   0.830   0.838   0.838   0.854
  0.861   0.864   0.876   0.913   0.920   0.939   0.956   0.989
  1.000   1.031   1.052   1.056   1.078   1.083   1.168   1.171
  1.177   1.182   1.183   1.196   1.288   1.333   1.371   1.373
  1.403   1.478   1.525   1.537   1.621   1.648   1.714   1.731
  1.762   1.763   1.823   1.832   1.833   1.837   1.899   1.915
  1.922   1.953   2.008   2.025   2.069   2.081   2.116   2.127
  2.194   2.204   2.236   2.273   2.308   2.308   2.325   2.334
  2.376   2.379   2.387   2.398   2.425   2.515   2.519   2.552
  2.569   2.644   2.685   2.782   2.803   2.969   3.043   3.110
  3.111   3.220   3.258   3.537   3.589   3.766   3.851   4.047
  4.116   4.122   4.170   4.225   4.365   4.471   4.561
 --------------------------------------------------------------
 
          Ground-State Mulliken Net Atomic Charges

     Atom                 Charge (a.u.)    Spin (a.u.)
  --------------------------------------------------------
      1 S                    -0.039610      -0.057667
      2 C                     0.111448       0.340593
      3 H                     0.259181      -0.016945
      4 C                    -0.446394      -0.053238
      5 H                     0.172616       0.001320
      6 C                     0.378406       0.170319
      7 H                     0.141150      -0.010551
      8 C                    -0.075621       0.126213
      9 C                    -0.071956       0.126271
     10 C                     0.370536       0.170178
     11 H                     0.140585      -0.010563
     12 C                    -0.444113      -0.053128
     13 H                     0.172604       0.001322
     14 C                     0.109941       0.340349
     15 H                     0.259191      -0.016943
     16 S                    -0.037964      -0.057531
  --------------------------------------------------------
  Sum of atomic charges =     1.000000
  Sum of spin   charges =     1.000000

 -----------------------------------------------------------------
                    Cartesian Multipole Moments
 -----------------------------------------------------------------
    Charge (ESU x 10^10)
                 4.8032
    Dipole Moment (Debye)
         X      -3.2484      Y       0.1802      Z     -10.2195
       Tot      10.7248
    Quadrupole Moments (Debye-Ang)
        XX     -28.9839     XY      -0.7525     YY     -73.3502
        XZ      20.8183     YZ      -0.1302     ZZ     -26.8045
    Octopole Moments (Debye-Ang^2)
       XXX      83.1615    XXY      -0.5763    XYY      62.2081
       YYY     -10.6652    XXZ      22.9284    XYZ       2.1424
       YYZ     133.2480    XZZ     -16.7536    YZZ      -3.0286
       ZZZ     201.1481
    Hexadecapole Moments (Debye-Ang^3)
      XXXX   -1309.3347   XXXY       4.4047   XXYY    -367.0306
      XYYY      20.6957   YYYY     -88.0598   XXXZ    -263.9182
      XXYZ      -1.8413   XYYZ    -222.8400   YYYZ      16.6314
      XXZZ    -336.6996   XYZZ       0.9409   YYZZ    -419.2645
      XZZZ    -272.3300   YZZZ      15.8405   ZZZZ   -1459.7574
 -----------------------------------------------------------------
Archival summary:
1\1\nid00776\OPT\ProcedureUnspecified\BasisUnspecified\286(1+,2)\bwood\WedMay3102:26:542017WedMay3102:26:542017\0\\#,OPT,ProcedureUnspecified,BasisUnspecified,\\1,2\S\C,1,1.71607\H,2,1.08348,1,119.637\C,2,1.39605,1,113.184,3,179.997,0\H,4,1.08323,2,122.975,1,-179.949,0\C,4,1.39206,2,112.45,1,0.00514224,0\H,6,1.083,4,123.883,2,179.948,0\C,6,1.41924,4,113.18,2,0.00698726,0\C,8,1.40885,6,126.772,4,-179.95,0\C,9,1.41904,8,126.719,6,0,0\H,10,1.08297,9,122.915,8,0.113729,0\C,10,1.39203,9,113.192,8,-179.937,0\H,12,1.08327,10,124.601,9,179.967,0\C,12,1.39596,10,112.441,9,-0.000928713,0\H,14,1.08357,12,127.185,10,-179.994,0\S,14,1.71599,12,113.203,10,0.00333137,0\\\@

 Total job time:  64.71s(wall), 65.99s(cpu) 
 Wed May 31 02:26:54 2017

        *************************************************************
        *                                                           *
        *  Thank you very much for using Q-Chem.  Have a nice day.  *
        *                                                           *
        *************************************************************


0 sent ACK to 0 
now end server 0 ... 
