srun -N 1 --ntasks-per-node 16 --cpus-per-task 4 --cpu_bind=cores --nodelist nid00851 /global/project/projectdirs/jcesr/qchem/qc44/cnl_qc441/dist/exe/qcprog.cori.haswell.exe .pt_n2_cation_100.0.in.27069.qcin.1 /global/cscratch1/sd/bwood/qchem/nx/qchem27069/
Process 2 of 16 is on nid00851 - thread support 0
Process 4 of 16 is on nid00851 - thread support 0
Process 5 of 16 is on nid00851 - thread support 0
Process 6 of 16 is on nid00851 - thread support 0
Process 0 of 16 is on nid00851 - thread support 0
Process 1 of 16 is on nid00851 - thread support 0
Process 3 of 16 is on nid00851 - thread support 0
Process 15 of 16 is on nid00851 - thread support 0
initial socket setup ...start
initial socket setup ...done 
now start server 0 ... 
nid00851 10.128.3
Q-Chem Developer Version! Running on 10.128.3.*
                  Welcome to Q-Chem
     A Quantum Leap Into The Future Of Chemistry


 Q-Chem 4.4, Q-Chem, Inc., Pleasanton, CA (2016)

 Y. Shao,  Z. Gan,  E. Epifanovsky,  A. T. B. Gilbert,  M. Wormit,  
 J. Kussmann,  A. W. Lange,  A. Behn,  J. Deng,  X. Feng,  D. Ghosh,  
 M. Goldey,  P. R. Horn,  L. D. Jacobson,  I. Kaliman,  F. Rob,  
 R. Z. Khaliullin,  T. Kus,  A. Landau,  J. Liu,  E. I. Proynov,  Y. M. Rhee,  
 R. M. Richard,  M. A. Rohrdanz,  R. P. Steele,  E. J. Sundstrom,  
 H. L. Woodcock III,  P. M. Zimmerman,  D. Zuev,  B. Albrecht,  E. Alguire,  
 B. Austin,  S. A. Baeppler,  G. J. O. Beran,  Y. A. Bernard,  
 E. J. Berquist,  K. Brandhorst,  K. B. Bravaya,  S. T. Brown,  D. Casanova,  
 C.-M. Chang,  Y. Chen,  S. H. Chien,  K. D. Closser,  M. P. Coons,  
 D. L. Crittenden,  S. Dasgupta,  M. Diedenhofen,  R. A. DiStasio Jr.,  
 H. Do,  A. D. Dutoi,  R. G. Edgar,  P.-T. Fang,  S. Fatehi,  Q. Feng,  
 L. Fusti-Molnar,  A. Ghysels,  A. Golubeva-Zadorozhnaya,  J. Gomes,  
 A. Gunina,  M. W. D. Hanson-Heine,  P. H. P. Harbach,  A. W. Hauser,  
 J. E. Herr,  E. G. Hohenstein,  Z. C. Holden,  K. Hui,  T.-C. Jagau,  H. Ji,  
 B. Kaduk,  K. Khistyaev,  Jaehoon Kim,  Jihan Kim,  R. A. King,  
 P. Klunzinger,  K. Koh,  D. Kosenkov,  T. Kowalczyk,  C. M. Krauter,  
 A. Kunitsa,  K. U. Lao,  A. Laurent,  K. V. Lawler,  J. Lee,  D. Lefrancois,  
 S. Lehtola,  S. V. Levchenko,  C. Y. Lin,  Y.-S. Lin,  F. Liu,  E. Livshits,  
 R. C. Lochan,  A. Luenser,  P. Manohar,  S. F. Manzer,  S.-P. Mao,  Y. Mao,  
 N. Mardirossian,  A. V. Marenich,  L. A. Martinez-Martinez,  S. A. Maurer,  
 N. J. Mayhall,  J.-M. Mewes,  A. F. Morrison,  K. Nanda,  T. S. Nguyen-Beck,  
 C. M. Oana,  R. Olivares-Amaya,  D. P. O'Neill,  J. A. Parkhill,  
 T. M. Perrine,  R. Peverati,  P. A. Pieniazek,  F. Plasser,  A. Prociuk,  
 D. R. Rehn,  E. Rosta,  N. J. Russ,  N. Sergueev,  S. M. Sharada,  
 S. Sharma,  D. W. Small,  A. Sodt,  T. Stauch,  T. Stein,  D. Stuck,  
 Y.-C. Su,  A. J. W. Thom,  T. Tsuchimochi,  L. Vogt,  O. Vydrov,  T. Wang,  
 M. A. Watson,  J. Wenzel,  A. White,  C. F. Williams,  V. Vanovschi,  
 K. Yao,  S. Yeganeh,  S. R. Yost,  Z.-Q. You,  I. Y. Zhang,  X. Zhang,  
 Y. Zhao,  B. R. Brooks,  G. K. L. Chan,  D. M. Chipman,  C. J. Cramer,  
 W. A. Goddard III,  M. S. Gordon,  W. J. Hehre,  A. Klamt,  
 H. F. Schaefer III,  M. W. Schmidt,  C. D. Sherrill,  D. G. Truhlar,  
 A. Warshel,  X. Xu,  A. Aspuru-Guzik,  R. Baer,  A. T. Bell,  N. A. Besley,  
 J.-D. Chai,  A. Dreuw,  B. D. Dunietz,  T. R. Furlani,  S. R. Gwaltney,  
 C.-P. Hsu,  Y. Jung,  J. Kong,  D. S. Lambrecht,  W. Liang,  C. Ochsenfeld,  
 V. A. Rassolov,  L. V. Slipchenko,  J. E. Subotnik,  T. Van Voorhis,  
 J. M. Herbert,  A. I. Krylov,  P. M. W. Gill,  M. Head-Gordon

 Contributors to earlier versions of Q-Chem not listed above: 
 R. D. Adamson,  J. Baker,  E. F. C. Byrd,  A. K. Chakraborty,  C.-L. Cheng,  
 H. Dachsel,  R. J. Doerksen,  G. Hawkins,  A. Heyden,  S. Hirata,  
 G. Kedziora,  F. J. Keil,  C. Kelley,  P. P. Korambath,  W. Kurlancheek,  
 A. M. Lee,  M. S. Lee,  D. Liotard,  I. Lotan,  P. E. Maslen,  N. Nair,  
 D. Neuhauser,  R. Olson,  B. Peters,  J. Ritchie,  N. E. Schultz,  
 N. Shenvi,  A. C. Simmonett,  K. S. Thanthiriwatte,  Q. Wu,  W. Zhang

 Please cite Q-Chem as follows:
 Y. Shao et al., Mol. Phys. 113, 184-215 (2015)
 DOI: 10.1080/00268976.2014.952696

 Q-Chem 4.4.2 for Intel X86 EM64T Linux

 Parts of Q-Chem use Armadillo 5.200.1 (Boston Tea Smuggler).
 http://arma.sourceforge.net/

 Q-Chem begins on Wed May 31 02:25:52 2017  

Host: nid00776
0

     Scratch files written to /global/cscratch1/sd/bwood/qchem/nx/qchem27069.0//
 Parallel job on  16  processors

Checking the input file for inconsistencies... 	...done.

--------------------------------------------------------------
User input:
--------------------------------------------------------------
$molecule
 1  2
 S           0.00238887        0.06077275        0.00183269
 C           1.73707619        0.03315849        0.00323229
 H           2.27612737        0.05289032        0.94042557
 C           2.24169204       -0.01546201       -1.26965798
 H           3.30285780       -0.04005365       -1.48972496
 C           1.22479222       -0.01612968       -2.26811464
 H           1.42674790       -0.02650987       -3.33334501
 C          -0.05393771        0.02880388       -1.75170966
 C          -1.32450815        0.04889988       -2.45636342
 C          -2.20238295       -0.98900508       -2.69327597
 H          -2.02757945       -1.99833813       -2.33759548
 C          -3.36585739       -0.59596420       -3.41627723
 H          -4.16701814       -1.27498768       -3.68490933
 C          -3.37323495        0.73840018       -3.72700453
 H          -4.12873100        1.30129592       -4.25790506
 S          -1.94342567        1.53606874       -3.15350164
$end


$rem
         jobtype = opt
        exchange = b3lyp
           basis = 6-31++g**
  max_scf_cycles = 150
      mem_static = 775
       mem_total = 7750
      sym_ignore = true
        symmetry = false
          thresh = 12
$end


$opt
CONSTRAINT
tors 6 8 9 10 100.0
ENDCONSTRAINT
$end

--------------------------------------------------------------
 ----------------------------------------------------------------
             Standard Nuclear Orientation (Angstroms)
    I     Atom           X                Y                Z
 ----------------------------------------------------------------
    1      S       0.0023888700     0.0607727500     0.0018326900
    2      C       1.7370761900     0.0331584900     0.0032322900
    3      H       2.2761273700     0.0528903200     0.9404255700
    4      C       2.2416920400    -0.0154620100    -1.2696579800
    5      H       3.3028578000    -0.0400536500    -1.4897249600
    6      C       1.2247922200    -0.0161296800    -2.2681146400
    7      H       1.4267479000    -0.0265098700    -3.3333450100
    8      C      -0.0539377100     0.0288038800    -1.7517096600
    9      C      -1.3245081500     0.0488998800    -2.4563634200
   10      C      -2.2023829500    -0.9890050800    -2.6932759700
   11      H      -2.0275794500    -1.9983381300    -2.3375954800
   12      C      -3.3658573900    -0.5959642000    -3.4162772300
   13      H      -4.1670181400    -1.2749876800    -3.6849093300
   14      C      -3.3732349500     0.7384001800    -3.7270045300
   15      H      -4.1287310000     1.3012959200    -4.2579050600
   16      S      -1.9434256700     1.5360687400    -3.1535016400
 ----------------------------------------------------------------
 Nuclear Repulsion Energy =   628.4416804369 hartrees
 There are       43 alpha and       42 beta electrons
 Requested basis set is 6-31++G(d,p)
 There are 76 shells and 234 basis functions

 Total QAlloc Memory Limit   7750 MB
 Mega-Array Size       758 MB
 MEM_STATIC part       775 MB
 A cutoff of  1.0D-12 yielded   2530 shell pairs
 There are     24910 function pairs

 Q-Chem warning in module /project/projectdirs/jcesr/qchem/qc44/cnl_qc441/compile/cori/qc_src/libqints/qchem/aobasis.C, line 68:

 Using reconstructed effective core potential

 
 -------------------------------------------------------
 OpenMP Integral Computing Module                       
 Release: version 1.0, May 2013, Q-Chem Inc. Pittsburgh 
 -------------------------------------------------------
 Integral Job Info:
 Integral job number is                      11
 Integral operator is                         1
 short-range coefficients                     0
 long-range coefficients              100000000
 Omega coefficients                           0
 if combine SR and LR in K                    0
 Integral screening is                        0
 Integral computing path is                   2
 max size of driver memory is            800000
 size of driver memory is                593474
 size of scratch memory is             15166112
 max col of scratch BK array               1296
 max len of scratch array in speh3          155
 max len of scratch index in speh4           18
 max int batch size is                      520
 min int batch size is                       52
 fixed nKL is                                52
 max L of basis functions is                  2
 order of int derivative is                   0
 number of shells is                         76
 number of basis is                         234
 number of cartesian basis is               234
 number of contracted shell pairs          2530
 number of primitive shell pairs           8217
 maxK2 (contraction) of shell pair           36
 max number of K2 of shell pair               1
 max number of CS2 of shell pair            266
 max number of PS2 of shell pair           1512
 mem total for path MDJ                   51992
 -------------------------------------------------------
 Smallest overlap matrix eigenvalue = 1.12E-06

 Scale SEOQF with 1.000000e-01/1.000000e-01/1.000000e-01

 Standard Electronic Orientation quadrupole field applied
 Nucleus-field energy     =    -0.0000000373 hartrees
 Guess from superposition of atomic densities
 Warning:  Energy on first SCF cycle will be non-variational
 An unrestricted hybrid HF-DFT SCF calculation will be
 performed using Pulay DIIS extrapolation
 Exchange:     0.2000 Hartree-Fock + 0.0800 Slater + 0.7200 B88
 Correlation:  0.1900 VWN1RPA + 0.8100 LYP
 Using SG-1 standard quadrature grid
 SCF converges when DIIS error is below 1.0E-08
 Inaccurate integrated density:
   Number of electrons =    85
   Numerical integral  =    85.999974876699
   Relative error      =     1.1764410314 %
 ---------------------------------------
  Cycle       Energy         DIIS Error
 ---------------------------------------
    1   -1107.1822808485      4.41E-02
    2   -1104.4217599966      3.78E-03
    3   -1104.1538482080      6.61E-03
    4   -1104.5039553923      1.82E-03
    5   -1104.5259527136      1.01E-03
    6   -1104.5348069534      4.43E-04
    7   -1104.5365747883      1.97E-04
    8   -1104.5370206615      5.82E-05
    9   -1104.5371487603      4.07E-05
   10   -1104.5373151133      2.24E-05
   11   -1104.5373894024      1.14E-05
   12   -1104.5374127735      6.44E-06
   13   -1104.5374182114      3.02E-06
   14   -1104.5374202694      1.59E-06
   15   -1104.5374204016      1.06E-06
   16   -1104.5374204736      4.05E-07
   17   -1104.5374204784      1.99E-07
   18   -1104.5374204790      1.31E-07
   19   -1104.5374204789      6.98E-08
   20   -1104.5374204783      2.37E-08
   21   -1104.5374204785      7.87E-09 Convergence criterion met
 ---------------------------------------
 <S^2> = 0.7588
 SCF time:  CPU 14.18 s  wall 13.56 s
 SCF   energy in the final basis set = -1104.5374204785
 Total energy in the final basis set = -1104.5374204785
 
 --------------------------------------------------------------
 
                    Orbital Energies (a.u.)
 --------------------------------------------------------------
 
 Alpha MOs
 -- Occupied --
-89.094 -89.094 -10.434 -10.433 -10.416 -10.416 -10.389 -10.389
-10.380 -10.380  -8.153  -8.153  -6.118  -6.118  -6.114  -6.113
 -6.110  -6.110  -1.086  -1.062  -0.960  -0.921  -0.918  -0.892
 -0.786  -0.747  -0.740  -0.710  -0.697  -0.653  -0.598  -0.594
 -0.593  -0.581  -0.575  -0.555  -0.554  -0.523  -0.520  -0.442
 -0.435  -0.431  -0.427
 -- Virtual --
 -0.220  -0.211  -0.153  -0.153  -0.136  -0.124  -0.123  -0.107
 -0.099  -0.092  -0.091  -0.087  -0.078  -0.078  -0.062  -0.060
 -0.044  -0.042  -0.039  -0.030  -0.017  -0.016  -0.010  -0.008
 -0.005   0.000   0.003   0.005   0.009   0.015   0.023   0.023
  0.025   0.027   0.036   0.037   0.041   0.050   0.050   0.060
  0.061   0.063   0.073   0.074   0.079   0.089   0.095   0.102
  0.117   0.119   0.124   0.131   0.143   0.145   0.145   0.153
  0.172   0.178   0.179   0.185   0.219   0.224   0.237   0.243
  0.277   0.308   0.312   0.332   0.363   0.371   0.387   0.423
  0.426   0.427   0.455   0.462   0.478   0.495   0.495   0.515
  0.535   0.535   0.562   0.565   0.571   0.580   0.600   0.611
  0.630   0.635   0.640   0.659   0.674   0.721   0.744   0.766
  0.768   0.786   0.799   0.804   0.809   0.833   0.836   0.850
  0.855   0.859   0.860   0.904   0.916   0.925   0.937   0.948
  0.969   1.014   1.044   1.047   1.087   1.108   1.148   1.164
  1.168   1.183   1.189   1.214   1.276   1.287   1.313   1.353
  1.372   1.506   1.510   1.593   1.626   1.663   1.699   1.707
  1.743   1.749   1.788   1.802   1.829   1.845   1.886   1.933
  1.939   1.968   2.000   2.015   2.023   2.075   2.087   2.169
  2.199   2.204   2.251   2.253   2.296   2.302   2.321   2.337
  2.339   2.349   2.407   2.417   2.428   2.472   2.526   2.530
  2.574   2.662   2.682   2.704   2.753   2.992   3.000   3.109
  3.111   3.234   3.257   3.551   3.569   3.796   3.796   4.092
  4.124   4.132   4.152   4.252   4.345   4.482   4.530
 
 Beta MOs
 -- Occupied --
-89.095 -89.095 -10.431 -10.430 -10.412 -10.412 -10.388 -10.388
-10.380 -10.380  -8.153  -8.153  -6.118  -6.118  -6.114  -6.114
 -6.111  -6.110  -1.080  -1.057  -0.950  -0.918  -0.916  -0.882
 -0.781  -0.742  -0.735  -0.707  -0.695  -0.650  -0.594  -0.589
 -0.585  -0.579  -0.572  -0.544  -0.542  -0.521  -0.519  -0.434
 -0.427  -0.411
 -- Virtual --
 -0.364  -0.203  -0.194  -0.149  -0.149  -0.128  -0.122  -0.115
 -0.106  -0.098  -0.091  -0.090  -0.087  -0.077  -0.076  -0.062
 -0.059  -0.042  -0.041  -0.039  -0.028  -0.016  -0.016  -0.009
 -0.007  -0.004   0.002   0.004   0.007   0.010   0.016   0.024
  0.024   0.026   0.028   0.037   0.039   0.043   0.052   0.052
  0.061   0.062   0.064   0.074   0.075   0.080   0.090   0.096
  0.102   0.118   0.120   0.128   0.132   0.145   0.146   0.147
  0.155   0.173   0.180   0.181   0.186   0.221   0.226   0.239
  0.245   0.279   0.311   0.314   0.334   0.363   0.373   0.388
  0.425   0.428   0.428   0.458   0.466   0.482   0.502   0.504
  0.521   0.536   0.538   0.564   0.567   0.574   0.582   0.604
  0.618   0.633   0.637   0.644   0.664   0.679   0.723   0.746
  0.770   0.773   0.789   0.801   0.806   0.811   0.835   0.837
  0.852   0.858   0.861   0.862   0.906   0.917   0.927   0.939
  0.951   0.972   1.018   1.050   1.051   1.090   1.111   1.151
  1.172   1.177   1.188   1.194   1.217   1.283   1.292   1.318
  1.360   1.380   1.518   1.522   1.599   1.636   1.671   1.703
  1.710   1.745   1.752   1.793   1.809   1.833   1.850   1.890
  1.942   1.945   1.977   2.011   2.026   2.029   2.082   2.093
  2.175   2.202   2.206   2.254   2.259   2.297   2.309   2.326
  2.341   2.344   2.352   2.411   2.421   2.433   2.476   2.530
  2.534   2.579   2.665   2.684   2.707   2.756   2.993   3.001
  3.109   3.111   3.235   3.258   3.553   3.571   3.796   3.796
  4.099   4.127   4.138   4.155   4.258   4.353   4.485   4.533
 --------------------------------------------------------------
 
          Ground-State Mulliken Net Atomic Charges

     Atom                 Charge (a.u.)    Spin (a.u.)
  --------------------------------------------------------
      1 S                     0.145528      -0.051848
      2 C                     0.070091       0.273263
      3 H                     0.247435      -0.011945
      4 C                    -0.373673       0.009309
      5 H                     0.174519      -0.001233
      6 C                     0.323616       0.064543
      7 H                     0.180291      -0.003085
      8 C                    -0.268251       0.221027
      9 C                    -0.266374       0.221072
     10 C                     0.321816       0.064176
     11 H                     0.180174      -0.003050
     12 C                    -0.372652       0.009744
     13 H                     0.174503      -0.001257
     14 C                     0.069415       0.272822
     15 H                     0.247458      -0.011936
     16 S                     0.146106      -0.051602
  --------------------------------------------------------
  Sum of atomic charges =     1.000000
  Sum of spin   charges =     1.000000

 -----------------------------------------------------------------
                    Cartesian Multipole Moments
 -----------------------------------------------------------------
    Charge (ESU x 10^10)
                 4.8032
    Dipole Moment (Debye)
         X      -3.2892      Y       0.1226      Z     -10.1479
       Tot      10.6683
    Quadrupole Moments (Debye-Ang)
        XX     -31.1395     XY      -0.7043     YY     -65.2508
        XZ      25.3877     YZ      -2.2432     ZZ     -32.3197
    Octopole Moments (Debye-Ang^2)
       XXX      86.0921    XXY     -10.2839    XYY      30.9598
       YYY     -45.0678    XXZ      20.3715    XYZ       9.5688
       YYZ     119.7210    XZZ     -40.0333    YZZ       0.7006
       ZZZ     293.9650
    Hexadecapole Moments (Debye-Ang^3)
      XXXX   -1247.9695   XXXY      57.5081   XXYY    -292.7303
      XYYY      78.5902   YYYY    -318.8965   XXXZ    -306.5722
      XXYZ      12.0969   XYYZ    -164.7606   YYYZ     137.7327
      XXZZ    -247.1438   XYZZ     -30.7617   YYZZ    -410.0595
      XZZZ    -337.1083   YZZZ      66.8233   ZZZZ   -2081.2158
 -----------------------------------------------------------------
 Calculating analytic gradient of the SCF energy
 Gradient of SCF Energy
            1           2           3           4           5           6
    1   0.0036021   0.0165219  -0.0008171   0.0003027   0.0003764  -0.0293184
    2   0.0082896   0.0010828  -0.0028812   0.0030077   0.0016146  -0.0129484
    3  -0.0114356  -0.0092214  -0.0011508   0.0283045   0.0005978   0.0025911
            7           8           9          10          11          12
    1  -0.0002659   0.0130157  -0.0086227   0.0294536  -0.0003271  -0.0106141
    2   0.0010890   0.0012709  -0.0129902   0.0126102   0.0002767   0.0248228
    3  -0.0000674  -0.0085816   0.0005410  -0.0030298   0.0010575  -0.0087447
           13          14          15          16
    1  -0.0012391  -0.0113264   0.0023401  -0.0030819
    2   0.0007337  -0.0152507  -0.0012869  -0.0094405
    3   0.0010170  -0.0006339  -0.0017633   0.0105196
 Max gradient component =       2.945E-02
 RMS gradient           =       1.055E-02
 Gradient time:  CPU 1.96 s  wall 1.92 s
 Geometry Optimization Parameters
   NAtoms,    NIC,     NZ,  NCons,   NDum,   NFix, NCnnct, MaxDiis
       16     111       0       1       0       0       0       0


** CONSTRAINED OPTIMIZATION IN DELOCALIZED INTERNAL COORDINATES **
   Searching for a Minimum

   Optimization Cycle:   1

                       Coordinates (Angstroms)
     ATOM                X               Y               Z
      1  S         0.0023888700    0.0607727500    0.0018326900
      2  C         1.7370761900    0.0331584900    0.0032322900
      3  H         2.2761273700    0.0528903200    0.9404255700
      4  C         2.2416920400   -0.0154620100   -1.2696579800
      5  H         3.3028578000   -0.0400536500   -1.4897249600
      6  C         1.2247922200   -0.0161296800   -2.2681146400
      7  H         1.4267479000   -0.0265098700   -3.3333450100
      8  C        -0.0539377100    0.0288038800   -1.7517096600
      9  C        -1.3245081500    0.0488998800   -2.4563634200
     10  C        -2.2023829500   -0.9890050800   -2.6932759700
     11  H        -2.0275794500   -1.9983381300   -2.3375954800
     12  C        -3.3658573900   -0.5959642000   -3.4162772300
     13  H        -4.1670181400   -1.2749876800   -3.6849093300
     14  C        -3.3732349500    0.7384001800   -3.7270045300
     15  H        -4.1287310000    1.3012959200   -4.2579050600
     16  S        -1.9434256700    1.5360687400   -3.1535016400
   Point Group: c1    Number of degrees of freedom:    42


   Energy is  -1104.537420478

              Constraints and their Current Values
                                        Value     Constraint
   Dihedral:        6   8   9  10      100.000      100.000

 Attempting to Generate Delocalized Internal Coordinates

 41 Hessian modes will be used to form the next step
  Hessian Eigenvalues:
     0.045000    0.045000    0.045000    0.045000    0.045000    0.045000
     0.045002    0.045002    0.045003    0.045004    0.045011    0.045012
     0.159943    0.159949    0.159991    0.159992    0.160000    0.160000
     0.221282    0.221282    0.237835    0.237839    0.250000    0.250000
     0.294264    0.294663    0.312518    0.312618    0.354736    0.354850
     0.355125    0.355132    0.358226    0.358329    0.378510    0.404854
     0.404909    0.463547    0.463616    0.497922    0.497945

 Minimum Search - Taking Simple RFO Step
 Searching for Lamda that Minimizes Along All modes
 Value Taken    Lamda =  -0.01190261
 Calculated Step too Large.  Step scaled by  0.955698
 Step Taken.  Stepsize is  0.300000

                             Maximum     Tolerance    Cnvgd?
         Gradient           0.027710      0.000300      NO
         Displacement       0.150147      0.001200      NO
         Energy change     *********      0.000001      NO


 New Cartesian Coordinates Obtained by Inverse Iteration

 Displacement from previous Coordinates is:  0.571829
 ----------------------------------------------------------------
             Standard Nuclear Orientation (Angstroms)
    I     Atom           X                Y                Z
 ----------------------------------------------------------------
    1      S      -0.0198414673     0.0058562975     0.0413298361
    2      C       1.7101548807    -0.0182339189    -0.0172171426
    3      H       2.2675203778    -0.0340218207     0.9115984103
    4      C       2.2187977309    -0.0236991052    -1.3108028566
    5      H       3.2763147326    -0.0656488193    -1.5439961062
    6      C       1.2068268551     0.0507854230    -2.2802876299
    7      H       1.3887320556     0.0723330818    -3.3489505355
    8      C      -0.0742995640     0.0910078440    -1.7180801078
    9      C      -1.3468413534     0.1015068589    -2.4099773180
   10      C      -2.2143354571    -0.9756193894    -2.6248917631
   11      H      -2.0360084550    -1.9711207810    -2.2338897286
   12      C      -3.3300019294    -0.6227285165    -3.3998029127
   13      H      -4.1160283214    -1.3153947811    -3.6770368192
   14      C      -3.3208540672     0.7212138983    -3.7544135494
   15      H      -4.0725035596     1.2604006915    -4.3183637096
   16      S      -1.9126254784     1.5672028970    -3.2091124273
 ----------------------------------------------------------------
 Nuclear Repulsion Energy =   627.6225147403 hartrees
 There are       43 alpha and       42 beta electrons
 Applying Cartesian multipole field
    Component          Value
    ---------          -----
     (2,0,0)        1.00000E-11
     (0,2,0)        2.00000E-11
     (0,0,2)       -3.00000E-11
 Nucleus-field energy     =    -0.0000000378 hartrees
 Requested basis set is 6-31++G(d,p)
 There are 76 shells and 234 basis functions
 A cutoff of  1.0D-12 yielded   2534 shell pairs
 There are     25006 function pairs

 Q-Chem warning in module /project/projectdirs/jcesr/qchem/qc44/cnl_qc441/compile/cori/qc_src/libqints/qchem/aobasis.C, line 68:

 Using reconstructed effective core potential

 Smallest overlap matrix eigenvalue = 9.41E-07
 Linear dependence detected in AO basis
 Number of orthogonalized atomic orbitals = 233
 Maximum deviation from orthogonality = 4.882E-11
 No. of orbitals has changed due to linear dependencies.  Generating new SCF guess.
 Guess from superposition of atomic densities
 Warning:  Energy on first SCF cycle will be non-variational
 An unrestricted hybrid HF-DFT SCF calculation will be
 performed using Pulay DIIS extrapolation
 Exchange:     0.2000 Hartree-Fock + 0.0800 Slater + 0.7200 B88
 Correlation:  0.1900 VWN1RPA + 0.8100 LYP
 Using SG-1 standard quadrature grid
 SCF converges when DIIS error is below 1.0E-08
 Geometry optimization detected.  Setting ReadMinima to 0
 Setting SaveMinima to 0
 Inaccurate integrated density:
   Number of electrons =    85
   Numerical integral  =    85.999647975809
   Relative error      =     1.1760564421 %
 ---------------------------------------
  Cycle       Energy         DIIS Error
 ---------------------------------------
    1   -1107.1351837697      4.39E-02
    2   -1104.4370815383      3.69E-03
    3   -1104.2117067470      6.26E-03
    4   -1104.5313567026      1.18E-03
    5   -1104.5369230251      8.83E-04
    6   -1104.5437095438      2.62E-04
    7   -1104.5442202858      1.32E-04
    8   -1104.5443807250      3.64E-05
    9   -1104.5444071521      1.71E-05
   10   -1104.5444253280      8.87E-06
   11   -1104.5444355097      5.05E-06
   12   -1104.5444383408      2.89E-06
   13   -1104.5444395147      1.00E-06
   14   -1104.5444396934      3.82E-07
   15   -1104.5444397134      1.70E-07
   16   -1104.5444397146      6.22E-08
   17   -1104.5444397147      3.94E-08
   18   -1104.5444397149      2.07E-08
   19   -1104.5444397145      1.33E-08
   20   -1104.5444397146      7.30E-09 Convergence criterion met
 ---------------------------------------
 <S^2> = 0.7604
 SCF time:  CPU 13.36 s  wall 13.32 s
 SCF   energy in the final basis set = -1104.5444397146
 Total energy in the final basis set = -1104.5444397146
 
 --------------------------------------------------------------
 
                    Orbital Energies (a.u.)
 --------------------------------------------------------------
 
 Alpha MOs
 -- Occupied --
-89.097 -89.097 -10.432 -10.432 -10.416 -10.416 -10.389 -10.389
-10.379 -10.379  -8.156  -8.156  -6.120  -6.120  -6.116  -6.116
 -6.113  -6.113  -1.083  -1.059  -0.954  -0.925  -0.922  -0.882
 -0.782  -0.746  -0.737  -0.712  -0.697  -0.648  -0.593  -0.591
 -0.586  -0.580  -0.574  -0.554  -0.550  -0.531  -0.527  -0.442
 -0.435  -0.433  -0.418
 -- Virtual --
 -0.224  -0.212  -0.159  -0.158  -0.134  -0.123  -0.122  -0.107
 -0.099  -0.092  -0.091  -0.087  -0.078  -0.077  -0.063  -0.059
 -0.043  -0.041  -0.038  -0.028  -0.015  -0.015  -0.010  -0.010
 -0.004   0.002   0.005   0.007   0.010   0.015   0.021   0.023
  0.025   0.028   0.034   0.038   0.041   0.050   0.051   0.061
  0.062   0.069   0.074   0.076   0.082   0.090   0.096   0.103
  0.114   0.115   0.120   0.121   0.148   0.148   0.149   0.154
  0.174   0.177   0.193   0.215   0.224   0.229   0.239   0.251
  0.306   0.312   0.339   0.363   0.365   0.380   0.419   0.420
  0.433   0.455   0.457   0.477   0.490   0.496   0.516   0.540
  0.543   0.562   0.563   0.569   0.590   0.598   0.617   0.627
  0.635   0.636   0.659   0.673   0.718   0.731   0.758   0.764
  0.782   0.797   0.798   0.810   0.820   0.835   0.835   0.844
  0.848   0.853   0.906   0.909   0.921   0.935   0.947   0.971
  0.996   1.020   1.053   1.082   1.105   1.144   1.171   1.171
  1.182   1.188   1.219   1.277   1.286   1.306   1.345   1.369
  1.504   1.509   1.584   1.621   1.661   1.719   1.721   1.735
  1.741   1.793   1.821   1.834   1.848   1.889   1.922   1.937
  1.957   2.006   2.010   2.018   2.066   2.090   2.158   2.201
  2.205   2.249   2.251   2.294   2.294   2.316   2.331   2.336
  2.349   2.397   2.406   2.418   2.464   2.523   2.530   2.578
  2.661   2.674   2.699   2.741   2.985   2.997   3.105   3.108
  3.229   3.250   3.552   3.569   3.793   3.795   4.090   4.094
  4.128   4.145   4.252   4.336   4.487   4.533
 
 Beta MOs
 -- Occupied --
-89.098 -89.098 -10.429 -10.429 -10.412 -10.412 -10.388 -10.388
-10.379 -10.379  -8.156  -8.156  -6.120  -6.120  -6.117  -6.116
 -6.113  -6.113  -1.076  -1.053  -0.945  -0.923  -0.920  -0.872
 -0.777  -0.742  -0.732  -0.709  -0.696  -0.644  -0.586  -0.585
 -0.582  -0.577  -0.571  -0.542  -0.541  -0.529  -0.525  -0.437
 -0.431  -0.409
 -- Virtual --
 -0.352  -0.207  -0.195  -0.155  -0.154  -0.127  -0.121  -0.112
 -0.106  -0.098  -0.091  -0.090  -0.086  -0.077  -0.075  -0.063
 -0.058  -0.041  -0.040  -0.037  -0.027  -0.015  -0.014  -0.009
 -0.009  -0.003   0.003   0.006   0.007   0.012   0.016   0.023
  0.025   0.026   0.029   0.035   0.040   0.042   0.052   0.052
  0.061   0.064   0.071   0.075   0.077   0.083   0.092   0.097
  0.103   0.115   0.117   0.123   0.123   0.149   0.149   0.151
  0.156   0.176   0.178   0.194   0.217   0.225   0.231   0.241
  0.255   0.309   0.313   0.342   0.364   0.365   0.381   0.420
  0.422   0.433   0.458   0.459   0.483   0.500   0.502   0.523
  0.542   0.546   0.563   0.564   0.571   0.591   0.602   0.623
  0.632   0.638   0.640   0.665   0.678   0.720   0.733   0.762
  0.770   0.785   0.800   0.800   0.812   0.822   0.836   0.837
  0.847   0.849   0.855   0.908   0.911   0.922   0.937   0.950
  0.974   1.001   1.023   1.058   1.085   1.107   1.147   1.180
  1.180   1.185   1.193   1.222   1.282   1.291   1.312   1.352
  1.376   1.516   1.522   1.592   1.628   1.668   1.720   1.724
  1.740   1.744   1.797   1.828   1.838   1.853   1.892   1.931
  1.944   1.966   2.015   2.020   2.026   2.073   2.097   2.163
  2.204   2.208   2.252   2.256   2.296   2.300   2.320   2.335
  2.340   2.352   2.401   2.410   2.423   2.468   2.527   2.534
  2.584   2.664   2.677   2.702   2.744   2.986   2.999   3.106
  3.109   3.231   3.251   3.553   3.571   3.793   3.796   4.097
  4.101   4.131   4.148   4.258   4.344   4.491   4.537
 --------------------------------------------------------------
 
          Ground-State Mulliken Net Atomic Charges

     Atom                 Charge (a.u.)    Spin (a.u.)
  --------------------------------------------------------
      1 S                     0.178805      -0.053854
      2 C                     0.076041       0.288164
      3 H                     0.247357      -0.012797
      4 C                    -0.343642      -0.002654
      5 H                     0.175017      -0.000108
      6 C                     0.323825       0.079756
      7 H                     0.182432      -0.003865
      8 C                    -0.340237       0.205540
      9 C                    -0.338230       0.205252
     10 C                     0.322539       0.079625
     11 H                     0.182390      -0.003835
     12 C                    -0.342971      -0.002354
     13 H                     0.174979      -0.000124
     14 C                     0.075307       0.287682
     15 H                     0.247367      -0.012780
     16 S                     0.179020      -0.053649
  --------------------------------------------------------
  Sum of atomic charges =     1.000000
  Sum of spin   charges =     1.000000

 -----------------------------------------------------------------
                    Cartesian Multipole Moments
 -----------------------------------------------------------------
    Charge (ESU x 10^10)
                 4.8032
    Dipole Moment (Debye)
         X      -3.2859      Y       0.1160      Z     -10.1521
       Tot      10.6712
    Quadrupole Moments (Debye-Ang)
        XX     -32.6301     XY      -0.5789     YY     -64.9584
        XZ      24.5731     YZ      -3.0014     ZZ     -31.9121
    Octopole Moments (Debye-Ang^2)
       XXX      91.9134    XXY     -12.9741    XYY      30.8200
       YYY     -44.9306    XXZ      23.8655    XYZ       8.6199
       YYZ     118.6739    XZZ     -38.4828    YZZ       3.1492
       ZZZ     290.3545
    Hexadecapole Moments (Debye-Ang^3)
      XXXX   -1252.4295   XXXY      64.5856   XXYY    -289.5708
      XYYY      79.0228   YYYY    -323.4925   XXXZ    -324.9952
      XXYZ      22.0289   XYYZ    -162.2252   YYYZ     148.3560
      XXZZ    -255.5571   XYZZ     -29.7019   YYZZ    -408.9869
      XZZZ    -331.3200   YZZZ      67.7391   ZZZZ   -2075.1080
 -----------------------------------------------------------------
 Calculating analytic gradient of the SCF energy
 Gradient of SCF Energy
            1           2           3           4           5           6
    1  -0.0062532   0.0030263  -0.0010161   0.0012754  -0.0000034  -0.0063802
    2   0.0053031   0.0032826  -0.0019950   0.0001138   0.0010328  -0.0120520
    3   0.0035748  -0.0051448   0.0001754   0.0040735  -0.0012744  -0.0013889
            7           8           9          10          11          12
    1   0.0013638   0.0109586  -0.0115309   0.0112981  -0.0012121  -0.0024180
    2   0.0001772   0.0057474  -0.0042807  -0.0011148  -0.0006525   0.0029535
    3  -0.0000874  -0.0007002   0.0018306  -0.0078337  -0.0002201  -0.0019141
           13          14          15          16
    1  -0.0000688  -0.0024824   0.0017097   0.0017329
    2  -0.0008411  -0.0049748   0.0001448   0.0071556
    3   0.0014015   0.0039319  -0.0014613   0.0050372
 Max gradient component =       1.205E-02
 RMS gradient           =       4.552E-03
 Gradient time:  CPU 1.92 s  wall 1.91 s
 Geometry Optimization Parameters
   NAtoms,    NIC,     NZ,  NCons,   NDum,   NFix, NCnnct, MaxDiis
       16     111       0       1       0       0       0       0

 Cartesian Hessian Update
 Hessian Updated using BFGS Update


** CONSTRAINED OPTIMIZATION IN DELOCALIZED INTERNAL COORDINATES **
   Searching for a Minimum

   Optimization Cycle:   2

                       Coordinates (Angstroms)
     ATOM                X               Y               Z
      1  S        -0.0198414673    0.0058562975    0.0413298361
      2  C         1.7101548807   -0.0182339189   -0.0172171426
      3  H         2.2675203778   -0.0340218207    0.9115984103
      4  C         2.2187977309   -0.0236991052   -1.3108028566
      5  H         3.2763147326   -0.0656488193   -1.5439961062
      6  C         1.2068268551    0.0507854230   -2.2802876299
      7  H         1.3887320556    0.0723330818   -3.3489505355
      8  C        -0.0742995640    0.0910078440   -1.7180801078
      9  C        -1.3468413534    0.1015068589   -2.4099773180
     10  C        -2.2143354571   -0.9756193894   -2.6248917631
     11  H        -2.0360084550   -1.9711207810   -2.2338897286
     12  C        -3.3300019294   -0.6227285165   -3.3998029127
     13  H        -4.1160283214   -1.3153947811   -3.6770368192
     14  C        -3.3208540672    0.7212138983   -3.7544135494
     15  H        -4.0725035596    1.2604006915   -4.3183637096
     16  S        -1.9126254784    1.5672028970   -3.2091124273
   Point Group: c1    Number of degrees of freedom:    42


   Energy is  -1104.544439715

              Constraints and their Current Values
                                        Value     Constraint
   Dihedral:        6   8   9  10      100.000      100.000
 Hessian Updated using BFGS Update

 40 Hessian modes will be used to form the next step
  Hessian Eigenvalues:
     0.028341    0.045000    0.045000    0.045000    0.045000    0.045002
     0.045002    0.045004    0.045010    0.045012    0.045681    0.159843
     0.159947    0.159973    0.159992    0.160000    0.160543    0.221282
     0.222261    0.237837    0.249155    0.250000    0.282638    0.294459
     0.299808    0.312568    0.316618    0.354724    0.354842    0.355109
     0.355129    0.358227    0.358334    0.377304    0.404881    0.425894
     0.460325    0.463582    0.497933    0.533586

 Minimum Search - Taking Simple RFO Step
 Searching for Lamda that Minimizes Along All modes
 Value Taken    Lamda =  -0.00530620
 Calculated Step too Large.  Step scaled by  0.793235
 Step Taken.  Stepsize is  0.300000

                             Maximum     Tolerance    Cnvgd?
         Gradient           0.007792      0.000300      NO
         Displacement       0.189097      0.001200      NO
         Energy change     -0.007019      0.000001      NO


 New Cartesian Coordinates Obtained by Inverse Iteration

 Displacement from previous Coordinates is:  0.657658
 ----------------------------------------------------------------
             Standard Nuclear Orientation (Angstroms)
    I     Atom           X                Y                Z
 ----------------------------------------------------------------
    1      S      -0.0009130568    -0.0550819163     0.0638410892
    2      C       1.7212116034    -0.0910759939    -0.0252924259
    3      H       2.3010870441    -0.1558502235     0.8886852532
    4      C       2.2072066113    -0.0280083053    -1.3333327094
    5      H       3.2598710748    -0.0851424416    -1.5827756708
    6      C       1.1847046470     0.1295112933    -2.2725882878
    7      H       1.3396298376     0.1960394462    -3.3431736599
    8      C      -0.0950227597     0.1615297744    -1.6836737515
    9      C      -1.3727312047     0.1572780902    -2.3569778335
   10      C      -2.2343561501    -0.9402361162    -2.5531153996
   11      H      -2.0531915191    -1.9144209048    -2.1140367825
   12      C      -3.3112246051    -0.6378038504    -3.3907117542
   13      H      -4.0811089245    -1.3458296798    -3.6727837107
   14      C      -3.2942484045     0.6921257514    -3.8172980246
   15      H      -4.0376207429     1.1967913199    -4.4244866338
   16      S      -1.9082864709     1.5640136164    -3.2761740584
 ----------------------------------------------------------------
 Nuclear Repulsion Energy =   627.1065832028 hartrees
 There are       43 alpha and       42 beta electrons
 Applying Cartesian multipole field
    Component          Value
    ---------          -----
     (2,0,0)        1.00000E-11
     (0,2,0)        2.00000E-11
     (0,0,2)       -3.00000E-11
 Nucleus-field energy     =    -0.0000000385 hartrees
 Requested basis set is 6-31++G(d,p)
 There are 76 shells and 234 basis functions
 A cutoff of  1.0D-12 yielded   2540 shell pairs
 There are     25034 function pairs

 Q-Chem warning in module /project/projectdirs/jcesr/qchem/qc44/cnl_qc441/compile/cori/qc_src/libqints/qchem/aobasis.C, line 68:

 Using reconstructed effective core potential

 Smallest overlap matrix eigenvalue = 9.79E-07
 Linear dependence detected in AO basis
 Number of orthogonalized atomic orbitals = 233
 Maximum deviation from orthogonality = 5.500E-11
 Guess MOs from SCF MO coefficient file
 Reading MOs from coefficient file
 Size of previous SCF MO coefficient file: 109510 (expected); 109980 (actual). 

 Q-Chem warning in module /project/projectdirs/jcesr/qchem/qc44/cnl_qc441/compile/cori/qc_src/gesman/GuessMan.C, line 722:

 Inconsistent size for SCF MO coefficient file.  Please check basis and PURECART setting.

 Reading MOs from coefficient file
 An unrestricted hybrid HF-DFT SCF calculation will be
 performed using Pulay DIIS extrapolation
 Exchange:     0.2000 Hartree-Fock + 0.0800 Slater + 0.7200 B88
 Correlation:  0.1900 VWN1RPA + 0.8100 LYP
 Using SG-1 standard quadrature grid
 SCF converges when DIIS error is below 1.0E-08
 Geometry optimization detected.  Setting ReadMinima to 0
 Setting SaveMinima to 0
 ---------------------------------------
  Cycle       Energy         DIIS Error
 ---------------------------------------
    1   -1104.5328458878      2.39E-03
    2   -1104.5472960583      2.19E-04
    3   -1104.5463025053      4.33E-04
    4   -1104.5478142019      6.91E-05
    5   -1104.5478430423      3.95E-05
    6   -1104.5478558110      1.00E-05
    7   -1104.5478572059      3.55E-06
    8   -1104.5478575082      1.57E-06
    9   -1104.5478576728      8.33E-07
   10   -1104.5478578106      5.40E-07
   11   -1104.5478578445      4.09E-07
   12   -1104.5478578648      7.55E-08
   13   -1104.5478578660      4.13E-08
   14   -1104.5478578655      1.87E-08
   15   -1104.5478578652      6.79E-09 Convergence criterion met
 ---------------------------------------
 <S^2> = 0.7618
 SCF time:  CPU 10.17 s  wall 10.42 s
 SCF   energy in the final basis set = -1104.5478578652
 Total energy in the final basis set = -1104.5478578652
 
 --------------------------------------------------------------
 
                    Orbital Energies (a.u.)
 --------------------------------------------------------------
 
 Alpha MOs
 -- Occupied --
-89.098 -89.098 -10.433 -10.432 -10.417 -10.417 -10.391 -10.391
-10.379 -10.379  -8.156  -8.156  -6.121  -6.121  -6.117  -6.117
 -6.113  -6.113  -1.083  -1.059  -0.953  -0.927  -0.923  -0.880
 -0.782  -0.747  -0.735  -0.712  -0.697  -0.648  -0.594  -0.591
 -0.585  -0.579  -0.576  -0.555  -0.550  -0.531  -0.526  -0.446
 -0.436  -0.434  -0.412
 -- Virtual --
 -0.228  -0.210  -0.159  -0.157  -0.134  -0.123  -0.123  -0.107
 -0.099  -0.093  -0.090  -0.086  -0.078  -0.078  -0.064  -0.060
 -0.042  -0.041  -0.035  -0.031  -0.017  -0.012  -0.012  -0.010
 -0.002   0.003   0.005   0.006   0.012   0.016   0.020   0.023
  0.024   0.028   0.033   0.037   0.041   0.050   0.050   0.063
  0.064   0.071   0.074   0.077   0.082   0.091   0.096   0.104
  0.112   0.113   0.118   0.119   0.145   0.150   0.153   0.154
  0.173   0.174   0.194   0.213   0.225   0.228   0.237   0.253
  0.304   0.308   0.343   0.365   0.369   0.375   0.416   0.419
  0.444   0.450   0.459   0.477   0.489   0.497   0.511   0.540
  0.546   0.561   0.562   0.569   0.593   0.595   0.616   0.626
  0.631   0.638   0.659   0.669   0.715   0.730   0.752   0.762
  0.786   0.794   0.803   0.814   0.817   0.834   0.838   0.838
  0.847   0.853   0.909   0.912   0.919   0.940   0.941   0.966
  0.997   1.020   1.053   1.081   1.101   1.145   1.169   1.171
  1.181   1.182   1.227   1.263   1.285   1.304   1.354   1.371
  1.500   1.512   1.564   1.625   1.661   1.723   1.725   1.728
  1.740   1.789   1.830   1.833   1.848   1.891   1.917   1.935
  1.950   2.002   2.004   2.019   2.061   2.087   2.160   2.202
  2.204   2.245   2.255   2.291   2.294   2.317   2.331   2.332
  2.351   2.395   2.405   2.424   2.461   2.519   2.530   2.576
  2.655   2.668   2.696   2.737   2.983   2.997   3.104   3.108
  3.228   3.244   3.550   3.566   3.794   3.799   4.091   4.091
  4.129   4.145   4.250   4.334   4.487   4.530
 
 Beta MOs
 -- Occupied --
-89.098 -89.098 -10.430 -10.429 -10.413 -10.413 -10.389 -10.389
-10.379 -10.379  -8.157  -8.157  -6.121  -6.121  -6.117  -6.117
 -6.114  -6.114  -1.076  -1.053  -0.945  -0.925  -0.920  -0.870
 -0.778  -0.743  -0.730  -0.709  -0.695  -0.645  -0.587  -0.586
 -0.580  -0.577  -0.573  -0.542  -0.541  -0.530  -0.524  -0.437
 -0.432  -0.413
 -- Virtual --
 -0.346  -0.210  -0.193  -0.155  -0.153  -0.127  -0.121  -0.113
 -0.107  -0.099  -0.092  -0.089  -0.086  -0.077  -0.076  -0.064
 -0.059  -0.041  -0.040  -0.035  -0.030  -0.016  -0.012  -0.012
 -0.009  -0.002   0.004   0.006   0.007   0.013   0.017   0.021
  0.024   0.025   0.029   0.033   0.040   0.042   0.051   0.051
  0.064   0.064   0.073   0.075   0.079   0.083   0.092   0.097
  0.104   0.113   0.114   0.120   0.121   0.146   0.151   0.155
  0.156   0.175   0.176   0.196   0.214   0.226   0.229   0.240
  0.256   0.307   0.309   0.345   0.367   0.369   0.375   0.418
  0.421   0.444   0.452   0.461   0.482   0.500   0.504   0.519
  0.541   0.549   0.562   0.564   0.571   0.595   0.599   0.622
  0.632   0.635   0.640   0.664   0.674   0.717   0.731   0.757
  0.768   0.788   0.796   0.806   0.816   0.818   0.835   0.840
  0.841   0.849   0.854   0.911   0.913   0.921   0.942   0.943
  0.970   1.001   1.024   1.059   1.084   1.104   1.148   1.177
  1.178   1.186   1.187   1.230   1.269   1.290   1.310   1.363
  1.377   1.512   1.525   1.574   1.631   1.668   1.724   1.728
  1.733   1.744   1.793   1.837   1.838   1.853   1.895   1.926
  1.942   1.960   2.010   2.012   2.031   2.068   2.094   2.165
  2.205   2.207   2.247   2.260   2.296   2.296   2.321   2.335
  2.337   2.354   2.400   2.409   2.429   2.465   2.523   2.534
  2.581   2.658   2.671   2.698   2.740   2.984   2.998   3.105
  3.108   3.229   3.246   3.551   3.568   3.794   3.799   4.098
  4.098   4.133   4.148   4.256   4.342   4.491   4.533
 --------------------------------------------------------------
 
          Ground-State Mulliken Net Atomic Charges

     Atom                 Charge (a.u.)    Spin (a.u.)
  --------------------------------------------------------
      1 S                     0.190040      -0.055017
      2 C                     0.057011       0.298867
      3 H                     0.246447      -0.013816
      4 C                    -0.350850      -0.012543
      5 H                     0.173432       0.000743
      6 C                     0.286854       0.094652
      7 H                     0.182262      -0.005443
      8 C                    -0.285743       0.192668
      9 C                    -0.283377       0.192430
     10 C                     0.285771       0.094704
     11 H                     0.182323      -0.005415
     12 C                    -0.350224      -0.012322
     13 H                     0.173351       0.000729
     14 C                     0.056146       0.298483
     15 H                     0.246442      -0.013808
     16 S                     0.190116      -0.054911
  --------------------------------------------------------
  Sum of atomic charges =     1.000000
  Sum of spin   charges =     1.000000

 -----------------------------------------------------------------
                    Cartesian Multipole Moments
 -----------------------------------------------------------------
    Charge (ESU x 10^10)
                 4.8032
    Dipole Moment (Debye)
         X      -3.2544      Y       0.0292      Z     -10.2132
       Tot      10.7192
    Quadrupole Moments (Debye-Ang)
        XX     -33.1207     XY      -0.5400     YY     -65.1817
        XZ      24.7695     YZ      -3.6787     ZZ     -31.1131
    Octopole Moments (Debye-Ang^2)
       XXX      94.4276    XXY     -14.7140    XYY      31.7929
       YYY     -44.4642    XXZ      24.6776    XYZ       7.8933
       YYZ     119.6955    XZZ     -41.4946    YZZ       5.7882
       ZZZ     284.1094
    Hexadecapole Moments (Debye-Ang^3)
      XXXX   -1259.8318   XXXY      68.0802   XXYY    -290.9190
      XYYY      80.5916   YYYY    -323.8586   XXXZ    -332.7615
      XXYZ      27.7777   XYYZ    -166.5563   YYYZ     160.6354
      XXZZ    -251.5364   XYZZ     -31.0295   YYZZ    -413.7136
      XZZZ    -311.4026   YZZZ      66.1223   ZZZZ   -2058.7161
 -----------------------------------------------------------------
 Calculating analytic gradient of the SCF energy
 Gradient of SCF Energy
            1           2           3           4           5           6
    1  -0.0034753  -0.0003127  -0.0002883   0.0006660  -0.0001699   0.0004960
    2   0.0023122   0.0033365  -0.0010508  -0.0006208   0.0004833  -0.0115598
    3   0.0035252   0.0001473   0.0005962  -0.0027248  -0.0006313  -0.0013993
            7           8           9          10          11          12
    1   0.0006751   0.0073349  -0.0104427   0.0053235  -0.0004196   0.0005649
    2  -0.0004414   0.0100077  -0.0016673  -0.0041477  -0.0002883  -0.0027266
    3   0.0001345  -0.0006379   0.0065612  -0.0095073  -0.0006259   0.0002834
           13          14          15          16
    1   0.0001107  -0.0011900   0.0005287   0.0005987
    2  -0.0003394   0.0010159   0.0004155   0.0052711
    3   0.0007435   0.0030108  -0.0010531   0.0015777
 Max gradient component =       1.156E-02
 RMS gradient           =       3.781E-03
 Gradient time:  CPU 1.90 s  wall 1.90 s
 Geometry Optimization Parameters
   NAtoms,    NIC,     NZ,  NCons,   NDum,   NFix, NCnnct, MaxDiis
       16     111       0       1       0       0       0       0

 Cartesian Hessian Update
 Hessian Updated using BFGS Update


** CONSTRAINED OPTIMIZATION IN DELOCALIZED INTERNAL COORDINATES **
   Searching for a Minimum

   Optimization Cycle:   3

                       Coordinates (Angstroms)
     ATOM                X               Y               Z
      1  S        -0.0009130568   -0.0550819163    0.0638410892
      2  C         1.7212116034   -0.0910759939   -0.0252924259
      3  H         2.3010870441   -0.1558502235    0.8886852532
      4  C         2.2072066113   -0.0280083053   -1.3333327094
      5  H         3.2598710748   -0.0851424416   -1.5827756708
      6  C         1.1847046470    0.1295112933   -2.2725882878
      7  H         1.3396298376    0.1960394462   -3.3431736599
      8  C        -0.0950227597    0.1615297744   -1.6836737515
      9  C        -1.3727312047    0.1572780902   -2.3569778335
     10  C        -2.2343561501   -0.9402361162   -2.5531153996
     11  H        -2.0531915191   -1.9144209048   -2.1140367825
     12  C        -3.3112246051   -0.6378038504   -3.3907117542
     13  H        -4.0811089245   -1.3458296798   -3.6727837107
     14  C        -3.2942484045    0.6921257514   -3.8172980246
     15  H        -4.0376207429    1.1967913199   -4.4244866338
     16  S        -1.9082864709    1.5640136164   -3.2761740584
   Point Group: c1    Number of degrees of freedom:    42


   Energy is  -1104.547857865

              Constraints and their Current Values
                                        Value     Constraint
   Dihedral:        6   8   9  10      100.000      100.000
 Hessian Updated using BFGS Update

 40 Hessian modes will be used to form the next step
  Hessian Eigenvalues:
     0.013723    0.045000    0.045000    0.045000    0.045002    0.045002
     0.045003    0.045008    0.045012    0.045018    0.048719    0.159771
     0.159947    0.159969    0.159992    0.160000    0.160661    0.221283
     0.222365    0.237840    0.250000    0.251839    0.281903    0.294456
     0.298944    0.312543    0.313893    0.354771    0.354932    0.355129
     0.355202    0.358273    0.358684    0.379261    0.404882    0.423831
     0.461619    0.463582    0.497934    0.573603

 Minimum Search - Taking Simple RFO Step
 Searching for Lamda that Minimizes Along All modes
 Value Taken    Lamda =  -0.00468855
 Calculated Step too Large.  Step scaled by  0.610385
 Step Taken.  Stepsize is  0.300000

                             Maximum     Tolerance    Cnvgd?
         Gradient           0.006788      0.000300      NO
         Displacement       0.223078      0.001200      NO
         Energy change     -0.003418      0.000001      NO


 New Cartesian Coordinates Obtained by Inverse Iteration

 Displacement from previous Coordinates is:  0.732902
 ----------------------------------------------------------------
             Standard Nuclear Orientation (Angstroms)
    I     Atom           X                Y                Z
 ----------------------------------------------------------------
    1      S       0.0115585971    -0.1095430512     0.0749826089
    2      C       1.7256363088    -0.1756842303    -0.0468862987
    3      H       2.3250114430    -0.3011051361     0.8477422642
    4      C       2.1893603257    -0.0272652669    -1.3574298542
    5      H       3.2364564117    -0.0957227477    -1.6266036480
    6      C       1.1554394415     0.2131228992    -2.2616065122
    7      H       1.2861484772     0.3344545354    -3.3306996643
    8      C      -0.1188650247     0.2361098533    -1.6485756341
    9      C      -1.3979378375     0.2159587716    -2.2997787043
   10      C      -2.2514961703    -0.8976823430    -2.4764294385
   11      H      -2.0752886055    -1.8466363877    -1.9832475093
   12      C      -3.2891618070    -0.6501828720    -3.3744671329
   13      H      -4.0429340585    -1.3753795726    -3.6563793287
   14      C      -3.2528445395     0.6517601506    -3.8826727424
   15      H      -3.9787619004     1.1167023696    -4.5401908484
   16      S      -1.8973140818     1.5549328878    -3.3316519170
 ----------------------------------------------------------------
 Nuclear Repulsion Energy =   627.9145710053 hartrees
 There are       43 alpha and       42 beta electrons
 Applying Cartesian multipole field
    Component          Value
    ---------          -----
     (2,0,0)        1.00000E-11
     (0,2,0)        2.00000E-11
     (0,0,2)       -3.00000E-11
 Nucleus-field energy     =    -0.0000000391 hartrees
 Requested basis set is 6-31++G(d,p)
 There are 76 shells and 234 basis functions
 A cutoff of  1.0D-12 yielded   2544 shell pairs
 There are     25066 function pairs

 Q-Chem warning in module /project/projectdirs/jcesr/qchem/qc44/cnl_qc441/compile/cori/qc_src/libqints/qchem/aobasis.C, line 68:

 Using reconstructed effective core potential

 Smallest overlap matrix eigenvalue = 1.19E-06
 No. of orbitals has changed due to linear dependencies.  Generating new SCF guess.
 Guess from superposition of atomic densities
 Warning:  Energy on first SCF cycle will be non-variational
 An unrestricted hybrid HF-DFT SCF calculation will be
 performed using Pulay DIIS extrapolation
 Exchange:     0.2000 Hartree-Fock + 0.0800 Slater + 0.7200 B88
 Correlation:  0.1900 VWN1RPA + 0.8100 LYP
 Using SG-1 standard quadrature grid
 SCF converges when DIIS error is below 1.0E-08
 Geometry optimization detected.  Setting ReadMinima to 0
 Setting SaveMinima to 0
 Inaccurate integrated density:
   Number of electrons =    85
   Numerical integral  =    85.999192615661
   Relative error      =     1.1755207243 %
 ---------------------------------------
  Cycle       Energy         DIIS Error
 ---------------------------------------
    1   -1107.1470097002      4.38E-02
    2   -1104.4463014611      3.61E-03
    3   -1104.2508055479      5.94E-03
    4   -1104.5433560701      8.64E-04
    5   -1104.5462534291      6.49E-04
    6   -1104.5497455744      1.84E-04
    7   -1104.5500418488      6.96E-05
    8   -1104.5500997362      2.19E-05
    9   -1104.5501144450      1.32E-05
   10   -1104.5501270504      5.21E-06
   11   -1104.5501349866      3.78E-06
   12   -1104.5501366996      2.20E-06
   13   -1104.5501372885      8.36E-07
   14   -1104.5501373652      2.69E-07
   15   -1104.5501373722      1.25E-07
   16   -1104.5501373736      3.13E-08
   17   -1104.5501373742      1.63E-08
   18   -1104.5501373737      4.66E-09 Convergence criterion met
 ---------------------------------------
 <S^2> = 0.7631
 SCF time:  CPU 12.14 s  wall 11.62 s
 SCF   energy in the final basis set = -1104.5501373737
 Total energy in the final basis set = -1104.5501373737
 
 --------------------------------------------------------------
 
                    Orbital Energies (a.u.)
 --------------------------------------------------------------
 
 Alpha MOs
 -- Occupied --
-89.098 -89.098 -10.433 -10.432 -10.417 -10.417 -10.392 -10.392
-10.379 -10.378  -8.156  -8.156  -6.121  -6.121  -6.117  -6.117
 -6.113  -6.113  -1.084  -1.060  -0.955  -0.928  -0.923  -0.880
 -0.784  -0.749  -0.734  -0.712  -0.697  -0.649  -0.596  -0.592
 -0.585  -0.579  -0.578  -0.556  -0.549  -0.531  -0.525  -0.450
 -0.436  -0.435  -0.409
 -- Virtual --
 -0.231  -0.208  -0.158  -0.156  -0.134  -0.123  -0.123  -0.108
 -0.100  -0.095  -0.090  -0.086  -0.078  -0.078  -0.065  -0.061
 -0.042  -0.040  -0.034  -0.032  -0.018  -0.015  -0.010  -0.009
 -0.002   0.003   0.004   0.005   0.013   0.014   0.020   0.022
  0.024   0.029   0.033   0.036   0.041   0.046   0.049   0.062
  0.067   0.072   0.073   0.078   0.082   0.091   0.097   0.105
  0.109   0.110   0.117   0.119   0.142   0.152   0.154   0.156
  0.171   0.172   0.191   0.194   0.212   0.225   0.229   0.236
  0.269   0.303   0.307   0.345   0.368   0.375   0.375   0.413
  0.414   0.444   0.458   0.459   0.475   0.498   0.498   0.507
  0.538   0.546   0.560   0.566   0.583   0.594   0.596   0.610
  0.621   0.631   0.643   0.658   0.665   0.713   0.737   0.745
  0.768   0.790   0.794   0.805   0.820   0.826   0.834   0.841
  0.846   0.856   0.862   0.910   0.916   0.918   0.934   0.946
  0.975   1.017   1.019   1.058   1.078   1.101   1.147   1.167
  1.167   1.175   1.183   1.224   1.250   1.282   1.308   1.372
  1.377   1.489   1.515   1.549   1.635   1.661   1.722   1.727
  1.728   1.744   1.788   1.831   1.833   1.847   1.894   1.914
  1.932   1.952   1.996   1.997   2.025   2.061   2.082   2.164
  2.203   2.204   2.241   2.260   2.290   2.296   2.318   2.330
  2.339   2.352   2.396   2.406   2.436   2.462   2.515   2.529
  2.574   2.651   2.668   2.697   2.739   2.983   2.997   3.107
  3.108   3.228   3.241   3.548   3.568   3.796   3.804   4.092
  4.093   4.133   4.147   4.248   4.338   4.488   4.527
 
 Beta MOs
 -- Occupied --
-89.098 -89.098 -10.430 -10.430 -10.413 -10.413 -10.390 -10.390
-10.379 -10.379  -8.157  -8.157  -6.121  -6.121  -6.117  -6.117
 -6.114  -6.114  -1.078  -1.054  -0.947  -0.926  -0.920  -0.870
 -0.779  -0.745  -0.729  -0.709  -0.696  -0.646  -0.589  -0.588
 -0.581  -0.576  -0.575  -0.543  -0.541  -0.530  -0.523  -0.438
 -0.433  -0.418
 -- Virtual --
 -0.342  -0.213  -0.190  -0.154  -0.152  -0.127  -0.120  -0.113
 -0.107  -0.099  -0.093  -0.089  -0.086  -0.077  -0.076  -0.065
 -0.061  -0.041  -0.039  -0.033  -0.032  -0.017  -0.014  -0.010
 -0.008  -0.001   0.003   0.005   0.007   0.015   0.017   0.021
  0.023   0.025   0.030   0.034   0.038   0.042   0.047   0.050
  0.063   0.067   0.073   0.075   0.080   0.084   0.093   0.098
  0.106   0.111   0.111   0.120   0.121   0.143   0.153   0.155
  0.158   0.173   0.174   0.192   0.196   0.214   0.226   0.230
  0.239   0.271   0.306   0.308   0.348   0.370   0.375   0.375
  0.415   0.416   0.445   0.460   0.460   0.482   0.505   0.509
  0.514   0.540   0.549   0.561   0.567   0.585   0.598   0.598
  0.616   0.626   0.635   0.645   0.663   0.671   0.715   0.739
  0.750   0.774   0.792   0.795   0.807   0.822   0.828   0.836
  0.843   0.849   0.857   0.863   0.912   0.917   0.920   0.937
  0.948   0.980   1.021   1.023   1.063   1.081   1.103   1.150
  1.173   1.174   1.180   1.190   1.227   1.257   1.287   1.315
  1.378   1.386   1.500   1.528   1.560   1.640   1.667   1.728
  1.730   1.730   1.746   1.791   1.837   1.838   1.852   1.899
  1.921   1.940   1.963   2.000   2.008   2.038   2.067   2.089
  2.170   2.206   2.207   2.244   2.266   2.294   2.298   2.323
  2.334   2.344   2.356   2.400   2.410   2.440   2.465   2.519
  2.533   2.580   2.654   2.671   2.699   2.742   2.985   2.998
  3.108   3.109   3.229   3.243   3.550   3.570   3.796   3.804
  4.099   4.100   4.136   4.149   4.254   4.345   4.492   4.531
 --------------------------------------------------------------
 
          Ground-State Mulliken Net Atomic Charges

     Atom                 Charge (a.u.)    Spin (a.u.)
  --------------------------------------------------------
      1 S                     0.185858      -0.055214
      2 C                     0.063070       0.307243
      3 H                     0.248427      -0.014905
      4 C                    -0.348168      -0.022536
      5 H                     0.172617       0.001433
      6 C                     0.255252       0.118574
      7 H                     0.183290      -0.006773
      8 C                    -0.261413       0.172172
      9 C                    -0.258534       0.172044
     10 C                     0.254763       0.118829
     11 H                     0.183304      -0.006742
     12 C                    -0.348416      -0.022540
     13 H                     0.172502       0.001425
     14 C                     0.063345       0.307096
     15 H                     0.248441      -0.014901
     16 S                     0.185663      -0.055204
  --------------------------------------------------------
  Sum of atomic charges =     1.000000
  Sum of spin   charges =     1.000000

 -----------------------------------------------------------------
                    Cartesian Multipole Moments
 -----------------------------------------------------------------
    Charge (ESU x 10^10)
                 4.8032
    Dipole Moment (Debye)
         X      -3.2158      Y      -0.0742      Z     -10.2853
       Tot      10.7766
    Quadrupole Moments (Debye-Ang)
        XX     -33.7499     XY      -0.4364     YY     -65.3977
        XZ      24.7982     YZ      -4.2653     ZZ     -30.3994
    Octopole Moments (Debye-Ang^2)
       XXX      97.5718    XXY     -17.0268    XYY      33.2042
       YYY     -44.1275    XXZ      26.1245    XYZ       6.5670
       YYZ     121.0816    XZZ     -44.2351    YZZ       7.8701
       ZZZ     277.4601
    Hexadecapole Moments (Debye-Ang^3)
      XXXX   -1263.0855   XXXY      72.9742   XXYY    -291.2317
      XYYY      81.5968   YYYY    -324.4880   XXXZ    -341.6740
      XXYZ      35.0151   XYYZ    -171.0407   YYYZ     172.2078
      XXZZ    -248.3179   XYZZ     -30.2385   YYZZ    -418.7364
      XZZZ    -287.5819   YZZZ      65.4811   ZZZZ   -2030.9670
 -----------------------------------------------------------------
 Calculating analytic gradient of the SCF energy
 Gradient of SCF Energy
            1           2           3           4           5           6
    1  -0.0009416  -0.0017316   0.0000060  -0.0000746  -0.0000604   0.0028496
    2   0.0008471   0.0016416  -0.0002303   0.0000988   0.0000355  -0.0120480
    3   0.0015117   0.0020407   0.0002704  -0.0042352  -0.0000454  -0.0002291
            7           8           9          10          11          12
    1   0.0000333   0.0031934  -0.0080614   0.0031991   0.0002824   0.0013367
    2  -0.0007573   0.0142947  -0.0009224  -0.0042817  -0.0001537  -0.0035631
    3   0.0000494  -0.0032607   0.0126374  -0.0110733  -0.0006885   0.0017547
           13          14          15          16
    1   0.0000368   0.0001986  -0.0000088  -0.0002574
    2   0.0000071   0.0029179   0.0002090   0.0019050
    3   0.0000859   0.0011806  -0.0003084   0.0003098
 Max gradient component =       1.429E-02
 RMS gradient           =       4.132E-03
 Gradient time:  CPU 1.95 s  wall 1.91 s
 Geometry Optimization Parameters
   NAtoms,    NIC,     NZ,  NCons,   NDum,   NFix, NCnnct, MaxDiis
       16     111       0       1       0       0       0       0

 Cartesian Hessian Update
 Hessian Updated using BFGS Update


** CONSTRAINED OPTIMIZATION IN DELOCALIZED INTERNAL COORDINATES **
   Searching for a Minimum

   Optimization Cycle:   4

                       Coordinates (Angstroms)
     ATOM                X               Y               Z
      1  S         0.0115585971   -0.1095430512    0.0749826089
      2  C         1.7256363088   -0.1756842303   -0.0468862987
      3  H         2.3250114430   -0.3011051361    0.8477422642
      4  C         2.1893603257   -0.0272652669   -1.3574298542
      5  H         3.2364564117   -0.0957227477   -1.6266036480
      6  C         1.1554394415    0.2131228992   -2.2616065122
      7  H         1.2861484772    0.3344545354   -3.3306996643
      8  C        -0.1188650247    0.2361098533   -1.6485756341
      9  C        -1.3979378375    0.2159587716   -2.2997787043
     10  C        -2.2514961703   -0.8976823430   -2.4764294385
     11  H        -2.0752886055   -1.8466363877   -1.9832475093
     12  C        -3.2891618070   -0.6501828720   -3.3744671329
     13  H        -4.0429340585   -1.3753795726   -3.6563793287
     14  C        -3.2528445395    0.6517601506   -3.8826727424
     15  H        -3.9787619004    1.1167023696   -4.5401908484
     16  S        -1.8973140818    1.5549328878   -3.3316519170
   Point Group: c1    Number of degrees of freedom:    42


   Energy is  -1104.550137374

              Constraints and their Current Values
                                        Value     Constraint
   Dihedral:        6   8   9  10      100.000      100.000
 Hessian Updated using BFGS Update

 41 Hessian modes will be used to form the next step
  Hessian Eigenvalues:
     0.012589    0.045000    0.045000    0.045000    0.045001    0.045002
     0.045002    0.045005    0.045008    0.045012    0.045299    0.049007
     0.159895    0.159948    0.159972    0.159992    0.160000    0.162052
     0.221283    0.222404    0.237846    0.250002    0.251685    0.281783
     0.294457    0.299148    0.312557    0.322403    0.354778    0.354979
     0.355129    0.355247    0.358273    0.358672    0.380734    0.404882
     0.422457    0.461814    0.463582    0.497934    0.560412

 Minimum Search - Taking Simple RFO Step
 Searching for Lamda that Minimizes Along All modes
 Value Taken    Lamda =  -0.00211825
 Calculated Step too Large.  Step scaled by  0.813971
 Step Taken.  Stepsize is  0.300000

                             Maximum     Tolerance    Cnvgd?
         Gradient           0.004548      0.000300      NO
         Displacement       0.241508      0.001200      NO
         Energy change     -0.002280      0.000001      NO


 New Cartesian Coordinates Obtained by Inverse Iteration

 Displacement from previous Coordinates is:  0.787342
 ----------------------------------------------------------------
             Standard Nuclear Orientation (Angstroms)
    I     Atom           X                Y                Z
 ----------------------------------------------------------------
    1      S       0.0198019840    -0.1599856983     0.0806033554
    2      C       1.7261778618    -0.2645227169    -0.0795671312
    3      H       2.3418203761    -0.4599727991     0.7908988109
    4      C       2.1679333763    -0.0254208241    -1.3825455577
    5      H       3.2077352100    -0.1019571695    -1.6767091909
    6      C       1.1230746623     0.2988503583    -2.2463854241
    7      H       1.2346384133     0.4834024480    -3.3088643359
    8      C      -0.1432021808     0.3132040433    -1.6102260335
    9      C      -1.4252761710     0.2778219089    -2.2413628332
   10      C      -2.2686672348    -0.8499539955    -2.3987790544
   11      H      -2.1072892255    -1.7695155528    -1.8476635630
   12      C      -3.2643992813    -0.6614576356    -3.3559012075
   13      H      -4.0004758519    -1.4066228055    -3.6325129045
   14      C      -3.2024715076     0.6028259944    -3.9459200396
   15      H      -3.9019500559     1.0230672135    -4.6593608831
   16      S      -1.8824433950     1.5440770909    -3.3795983677
 ----------------------------------------------------------------
 Nuclear Repulsion Energy =   628.9934946659 hartrees
 There are       43 alpha and       42 beta electrons
 Applying Cartesian multipole field
    Component          Value
    ---------          -----
     (2,0,0)        1.00000E-11
     (0,2,0)        2.00000E-11
     (0,0,2)       -3.00000E-11
 Nucleus-field energy     =    -0.0000000397 hartrees
 Requested basis set is 6-31++G(d,p)
 There are 76 shells and 234 basis functions
 A cutoff of  1.0D-12 yielded   2550 shell pairs
 There are     25104 function pairs

 Q-Chem warning in module /project/projectdirs/jcesr/qchem/qc44/cnl_qc441/compile/cori/qc_src/libqints/qchem/aobasis.C, line 68:

 Using reconstructed effective core potential

 Smallest overlap matrix eigenvalue = 1.63E-06
 Guess MOs from SCF MO coefficient file
 Reading MOs from coefficient file
 Reading MOs from coefficient file
 An unrestricted hybrid HF-DFT SCF calculation will be
 performed using Pulay DIIS extrapolation
 Exchange:     0.2000 Hartree-Fock + 0.0800 Slater + 0.7200 B88
 Correlation:  0.1900 VWN1RPA + 0.8100 LYP
 Using SG-1 standard quadrature grid
 SCF converges when DIIS error is below 1.0E-08
 Geometry optimization detected.  Setting ReadMinima to 0
 Setting SaveMinima to 0
 ---------------------------------------
  Cycle       Energy         DIIS Error
 ---------------------------------------
    1   -1104.5325455893      2.74E-03
    2   -1104.5495231317      4.15E-04
    3   -1104.5445929514      8.89E-04
    4   -1104.5511166968      1.04E-04
    5   -1104.5511874047      4.99E-05
    6   -1104.5512076433      1.13E-05
    7   -1104.5512092497      3.32E-06
    8   -1104.5512095068      1.54E-06
    9   -1104.5512096224      7.57E-07
   10   -1104.5512097208      4.17E-07
   11   -1104.5512097519      2.70E-07
   12   -1104.5512097586      1.07E-07
   13   -1104.5512097600      4.21E-08
   14   -1104.5512097601      1.47E-08
   15   -1104.5512097596      5.58E-09 Convergence criterion met
 ---------------------------------------
 <S^2> = 0.7640
 SCF time:  CPU 10.36 s  wall 11.43 s
 SCF   energy in the final basis set = -1104.5512097596
 Total energy in the final basis set = -1104.5512097596
 
 --------------------------------------------------------------
 
                    Orbital Energies (a.u.)
 --------------------------------------------------------------
 
 Alpha MOs
 -- Occupied --
-89.097 -89.097 -10.433 -10.433 -10.417 -10.417 -10.394 -10.394
-10.378 -10.378  -8.156  -8.156  -6.120  -6.120  -6.116  -6.116
 -6.113  -6.113  -1.085  -1.060  -0.957  -0.929  -0.922  -0.880
 -0.785  -0.751  -0.733  -0.712  -0.698  -0.651  -0.598  -0.593
 -0.587  -0.579  -0.579  -0.556  -0.549  -0.531  -0.523  -0.454
 -0.437  -0.436  -0.406
 -- Virtual --
 -0.235  -0.205  -0.158  -0.155  -0.134  -0.124  -0.123  -0.109
 -0.099  -0.096  -0.089  -0.086  -0.079  -0.078  -0.066  -0.062
 -0.042  -0.040  -0.036  -0.029  -0.019  -0.017  -0.009  -0.006
 -0.001   0.002   0.004   0.007   0.013   0.014   0.020   0.022
  0.024   0.029   0.034   0.035   0.041   0.044   0.048   0.062
  0.069   0.072   0.074   0.078   0.086   0.091   0.099   0.104
  0.107   0.109   0.117   0.121   0.139   0.150   0.154   0.159
  0.169   0.172   0.192   0.194   0.209   0.224   0.227   0.236
  0.262   0.303   0.306   0.347   0.366   0.380   0.381   0.407
  0.413   0.446   0.458   0.464   0.470   0.497   0.500   0.507
  0.534   0.539   0.559   0.567   0.582   0.594   0.595   0.605
  0.611   0.631   0.650   0.657   0.662   0.711   0.738   0.739
  0.763   0.785   0.802   0.807   0.818   0.823   0.825   0.841
  0.851   0.859   0.861   0.912   0.918   0.918   0.930   0.940
  0.981   1.004   1.015   1.061   1.069   1.103   1.145   1.160
  1.163   1.164   1.186   1.203   1.240   1.289   1.313   1.371
  1.399   1.475   1.516   1.540   1.645   1.660   1.718   1.724
  1.728   1.744   1.786   1.825   1.834   1.839   1.894   1.906
  1.929   1.956   1.984   1.994   2.033   2.063   2.075   2.166
  2.202   2.204   2.238   2.266   2.286   2.299   2.316   2.328
  2.339   2.353   2.396   2.407   2.436   2.464   2.509   2.529
  2.573   2.646   2.667   2.698   2.738   2.983   2.997   3.107
  3.108   3.227   3.238   3.546   3.565   3.797   3.804   4.090
  4.091   4.135   4.147   4.245   4.336   4.488   4.523
 
 Beta MOs
 -- Occupied --
-89.097 -89.097 -10.431 -10.430 -10.413 -10.413 -10.392 -10.392
-10.379 -10.379  -8.156  -8.156  -6.121  -6.121  -6.117  -6.117
 -6.114  -6.114  -1.079  -1.055  -0.949  -0.927  -0.920  -0.870
 -0.780  -0.747  -0.728  -0.709  -0.696  -0.648  -0.590  -0.590
 -0.582  -0.576  -0.575  -0.543  -0.541  -0.529  -0.521  -0.438
 -0.433  -0.423
 -- Virtual --
 -0.340  -0.215  -0.188  -0.154  -0.152  -0.128  -0.120  -0.114
 -0.108  -0.099  -0.094  -0.089  -0.085  -0.078  -0.076  -0.066
 -0.062  -0.041  -0.039  -0.035  -0.029  -0.018  -0.017  -0.009
 -0.005  -0.001   0.003   0.004   0.009   0.015   0.016   0.021
  0.023   0.025   0.030   0.035   0.036   0.043   0.045   0.049
  0.063   0.070   0.074   0.075   0.080   0.088   0.093   0.100
  0.105   0.109   0.110   0.121   0.121   0.139   0.151   0.155
  0.161   0.170   0.174   0.193   0.196   0.211   0.226   0.228
  0.239   0.265   0.306   0.307   0.350   0.367   0.379   0.381
  0.408   0.415   0.447   0.459   0.466   0.477   0.506   0.510
  0.511   0.536   0.541   0.559   0.568   0.584   0.598   0.600
  0.610   0.616   0.636   0.652   0.662   0.668   0.713   0.739
  0.744   0.769   0.787   0.804   0.809   0.820   0.825   0.827
  0.843   0.854   0.860   0.862   0.914   0.919   0.919   0.932
  0.941   0.986   1.008   1.019   1.067   1.072   1.106   1.150
  1.163   1.170   1.171   1.193   1.207   1.247   1.294   1.321
  1.376   1.407   1.485   1.529   1.551   1.649   1.666   1.726
  1.726   1.731   1.747   1.789   1.831   1.838   1.844   1.901
  1.913   1.938   1.965   1.989   2.005   2.046   2.068   2.081
  2.172   2.206   2.207   2.240   2.272   2.290   2.301   2.321
  2.333   2.343   2.357   2.400   2.412   2.441   2.467   2.513
  2.532   2.579   2.649   2.670   2.700   2.740   2.984   2.998
  3.107   3.109   3.229   3.240   3.548   3.567   3.798   3.804
  4.097   4.097   4.138   4.150   4.251   4.344   4.492   4.527
 --------------------------------------------------------------
 
          Ground-State Mulliken Net Atomic Charges

     Atom                 Charge (a.u.)    Spin (a.u.)
  --------------------------------------------------------
      1 S                     0.193929      -0.057966
      2 C                     0.066828       0.312482
      3 H                     0.250877      -0.015331
      4 C                    -0.366370      -0.028543
      5 H                     0.172624       0.001893
      6 C                     0.206628       0.130917
      7 H                     0.181265      -0.008183
      8 C                    -0.208591       0.164691
      9 C                    -0.203653       0.164365
     10 C                     0.207462       0.131319
     11 H                     0.181196      -0.008161
     12 C                    -0.367353      -0.028775
     13 H                     0.172545       0.001892
     14 C                     0.067814       0.312806
     15 H                     0.250836      -0.015345
     16 S                     0.193966      -0.058060
  --------------------------------------------------------
  Sum of atomic charges =     1.000000
  Sum of spin   charges =     1.000000

 -----------------------------------------------------------------
                    Cartesian Multipole Moments
 -----------------------------------------------------------------
    Charge (ESU x 10^10)
                 4.8032
    Dipole Moment (Debye)
         X      -3.1729      Y      -0.1906      Z     -10.3667
       Tot      10.8431
    Quadrupole Moments (Debye-Ang)
        XX     -34.4769     XY      -0.2693     YY     -65.5639
        XZ      24.6583     YZ      -4.7460     ZZ     -29.7627
    Octopole Moments (Debye-Ang^2)
       XXX     101.2183    XXY     -19.8173    XYY      34.9197
       YYY     -43.9503    XXZ      28.0829    XYZ       4.7491
       YYZ     122.5837    XZZ     -46.5604    YZZ       9.3399
       ZZZ     270.5505
    Hexadecapole Moments (Debye-Ang^3)
      XXXX   -1265.5344   XXXY      78.9321   XXYY    -290.8301
      XYYY      82.3931   YYYY    -326.5816   XXXZ    -352.6940
      XXYZ      43.6531   XYYZ    -175.4277   YYYZ     182.7601
      XXZZ    -247.0353   XYZZ     -26.9972   YYZZ    -423.9387
      XZZZ    -262.2157   YZZZ      66.5256   ZZZZ   -1995.7225
 -----------------------------------------------------------------
 Calculating analytic gradient of the SCF energy
 Gradient of SCF Energy
            1           2           3           4           5           6
    1   0.0006652  -0.0016267   0.0002225  -0.0002171   0.0000001   0.0027990
    2  -0.0001688  -0.0002623   0.0003917   0.0006137  -0.0002884  -0.0129007
    3  -0.0005025   0.0017016   0.0000792  -0.0026435   0.0002740   0.0005617
            7           8           9          10          11          12
    1  -0.0003903   0.0009783  -0.0075667   0.0033777   0.0006723   0.0007151
    2  -0.0007256   0.0188827  -0.0011162  -0.0037689  -0.0000964  -0.0020773
    3  -0.0001246  -0.0060224   0.0181987  -0.0121350  -0.0004894   0.0017192
           13          14          15          16
    1   0.0000428   0.0008737  -0.0003743  -0.0001715
    2   0.0001598   0.0022140   0.0000555  -0.0009127
    3  -0.0003455  -0.0005297   0.0002653  -0.0000071
 Max gradient component =       1.888E-02
 RMS gradient           =       4.919E-03
 Gradient time:  CPU 1.92 s  wall 1.93 s
 Geometry Optimization Parameters
   NAtoms,    NIC,     NZ,  NCons,   NDum,   NFix, NCnnct, MaxDiis
       16     111       0       1       0       0       0       0

 Cartesian Hessian Update
 Hessian Updated using BFGS Update


** CONSTRAINED OPTIMIZATION IN DELOCALIZED INTERNAL COORDINATES **
   Searching for a Minimum

   Optimization Cycle:   5

                       Coordinates (Angstroms)
     ATOM                X               Y               Z
      1  S         0.0198019840   -0.1599856983    0.0806033554
      2  C         1.7261778618   -0.2645227169   -0.0795671312
      3  H         2.3418203761   -0.4599727991    0.7908988109
      4  C         2.1679333763   -0.0254208241   -1.3825455577
      5  H         3.2077352100   -0.1019571695   -1.6767091909
      6  C         1.1230746623    0.2988503583   -2.2463854241
      7  H         1.2346384133    0.4834024480   -3.3088643359
      8  C        -0.1432021808    0.3132040433   -1.6102260335
      9  C        -1.4252761710    0.2778219089   -2.2413628332
     10  C        -2.2686672348   -0.8499539955   -2.3987790544
     11  H        -2.1072892255   -1.7695155528   -1.8476635630
     12  C        -3.2643992813   -0.6614576356   -3.3559012075
     13  H        -4.0004758519   -1.4066228055   -3.6325129045
     14  C        -3.2024715076    0.6028259944   -3.9459200396
     15  H        -3.9019500559    1.0230672135   -4.6593608831
     16  S        -1.8824433950    1.5440770909   -3.3795983677
   Point Group: c1    Number of degrees of freedom:    42


   Energy is  -1104.551209760

              Constraints and their Current Values
                                        Value     Constraint
   Dihedral:        6   8   9  10      100.000      100.000
 Hessian Updated using BFGS Update

 41 Hessian modes will be used to form the next step
  Hessian Eigenvalues:
     0.014165    0.045000    0.045000    0.045000    0.045001    0.045002
     0.045004    0.045007    0.045011    0.045015    0.045614    0.048684
     0.159930    0.159953    0.159976    0.159992    0.160000    0.162534
     0.221284    0.222416    0.237845    0.250026    0.250839    0.281813
     0.294497    0.299922    0.312577    0.326012    0.354778    0.354975
     0.355129    0.355252    0.358274    0.358652    0.381958    0.404882
     0.422089    0.462165    0.463583    0.497937    0.542985

 Minimum Search - Taking Simple RFO Step
 Searching for Lamda that Minimizes Along All modes
 Value Taken    Lamda =  -0.00019841
 Step Taken.  Stepsize is  0.096171

                             Maximum     Tolerance    Cnvgd?
         Gradient           0.002681      0.000300      NO
         Displacement       0.083873      0.001200      NO
         Energy change     -0.001072      0.000001      NO


 New Cartesian Coordinates Obtained by Inverse Iteration

 Displacement from previous Coordinates is:  0.267374
 ----------------------------------------------------------------
             Standard Nuclear Orientation (Angstroms)
    I     Atom           X                Y                Z
 ----------------------------------------------------------------
    1      S       0.0214171918    -0.1724606044     0.0816176457
    2      C       1.7259945807    -0.2934739128    -0.0925158605
    3      H       2.3442978878    -0.5170874445     0.7690748697
    4      C       2.1611329379    -0.0249623954    -1.3900823017
    5      H       3.1981408444    -0.1015125828    -1.6941646545
    6      C       1.1131775001     0.3261230343    -2.2410973194
    7      H       1.2232334220     0.5362047473    -3.2990481394
    8      C      -0.1493636207     0.3374924906    -1.5991463173
    9      C      -1.4343829608     0.2965993998    -2.2238912875
   10      C      -2.2737533707    -0.8341297774    -2.3745038363
   11      H      -2.1234380809    -1.7426870586    -1.8022160302
   12      C      -3.2563730139    -0.6648536198    -3.3499130243
   13      H      -3.9869656568    -1.4174498019    -3.6210808437
[...]
    8   -1104.5513576046      9.12E-09 Convergence criterion met
 ---------------------------------------
 <S^2> = 0.7640
 SCF time:  CPU 5.45 s  wall 5.55 s
 SCF   energy in the final basis set = -1104.5513576046
 Total energy in the final basis set = -1104.5513576046
 
 --------------------------------------------------------------
 
                    Orbital Energies (a.u.)
 --------------------------------------------------------------
 
 Alpha MOs
 -- Occupied --
-89.097 -89.097 -10.434 -10.433 -10.417 -10.417 -10.394 -10.394
-10.379 -10.379  -8.156  -8.156  -6.120  -6.120  -6.116  -6.116
 -6.113  -6.113  -1.085  -1.060  -0.957  -0.929  -0.922  -0.881
 -0.785  -0.752  -0.732  -0.712  -0.698  -0.651  -0.597  -0.593
 -0.587  -0.580  -0.579  -0.556  -0.549  -0.531  -0.522  -0.456
 -0.436  -0.436  -0.406
 -- Virtual --
 -0.235  -0.204  -0.157  -0.156  -0.135  -0.124  -0.123  -0.109
 -0.099  -0.096  -0.089  -0.085  -0.080  -0.077  -0.067  -0.062
 -0.042  -0.040  -0.036  -0.029  -0.019  -0.018  -0.009  -0.006
 -0.001   0.002   0.004   0.007   0.012   0.014   0.020   0.022
  0.024   0.029   0.033   0.035   0.042   0.043   0.047   0.061
  0.070   0.072   0.074   0.078   0.088   0.091   0.100   0.103
  0.106   0.109   0.118   0.121   0.138   0.149   0.155   0.160
  0.169   0.171   0.192   0.194   0.209   0.224   0.226   0.236
  0.260   0.304   0.307   0.348   0.364   0.380   0.384   0.407
  0.413   0.447   0.457   0.464   0.469   0.497   0.499   0.507
  0.533   0.536   0.558   0.567   0.579   0.593   0.593   0.606
  0.608   0.632   0.653   0.657   0.662   0.710   0.738   0.739
  0.762   0.784   0.803   0.808   0.816   0.824   0.826   0.840
  0.851   0.858   0.861   0.914   0.916   0.917   0.930   0.938
  0.982   1.003   1.014   1.061   1.067   1.106   1.145   1.154
  1.163   1.164   1.185   1.197   1.237   1.290   1.321   1.366
  1.403   1.471   1.516   1.537   1.647   1.660   1.716   1.723
  1.728   1.743   1.786   1.821   1.834   1.835   1.896   1.905
  1.929   1.954   1.981   1.993   2.035   2.064   2.072   2.167
  2.202   2.205   2.237   2.267   2.286   2.300   2.317   2.329
  2.338   2.352   2.395   2.408   2.436   2.464   2.506   2.528
  2.574   2.646   2.668   2.699   2.739   2.983   2.997   3.106
  3.108   3.228   3.239   3.545   3.565   3.797   3.804   4.089
  4.092   4.135   4.148   4.243   4.336   4.488   4.522
 
 Beta MOs
 -- Occupied --
-89.097 -89.097 -10.431 -10.431 -10.413 -10.413 -10.392 -10.392
-10.379 -10.379  -8.156  -8.156  -6.120  -6.120  -6.116  -6.116
 -6.113  -6.113  -1.079  -1.055  -0.949  -0.927  -0.920  -0.871
 -0.781  -0.747  -0.727  -0.709  -0.697  -0.648  -0.590  -0.590
 -0.582  -0.577  -0.576  -0.543  -0.541  -0.529  -0.520  -0.438
 -0.434  -0.424
 -- Virtual --
 -0.339  -0.216  -0.186  -0.153  -0.153  -0.128  -0.120  -0.114
 -0.108  -0.099  -0.095  -0.088  -0.085  -0.079  -0.075  -0.067
 -0.062  -0.041  -0.039  -0.035  -0.028  -0.018  -0.018  -0.009
 -0.004  -0.000   0.003   0.004   0.009   0.014   0.016   0.021
  0.023   0.025   0.031   0.035   0.036   0.043   0.044   0.048
  0.062   0.070   0.074   0.075   0.080   0.089   0.092   0.100
  0.104   0.108   0.110   0.121   0.122   0.139   0.150   0.156
  0.162   0.170   0.173   0.193   0.196   0.210   0.225   0.228
  0.239   0.263   0.307   0.309   0.351   0.365   0.380   0.384
  0.408   0.414   0.448   0.458   0.466   0.476   0.507   0.510
  0.511   0.535   0.538   0.559   0.568   0.582   0.597   0.599
  0.609   0.612   0.637   0.654   0.662   0.668   0.712   0.740
  0.743   0.767   0.785   0.806   0.809   0.818   0.826   0.829
  0.842   0.854   0.860   0.863   0.916   0.917   0.919   0.932
  0.939   0.987   1.007   1.018   1.067   1.070   1.109   1.150
  1.155   1.169   1.170   1.192   1.200   1.244   1.294   1.329
  1.370   1.412   1.481   1.529   1.548   1.651   1.666   1.724
  1.726   1.731   1.745   1.789   1.828   1.839   1.840   1.903
  1.911   1.938   1.962   1.988   2.004   2.049   2.069   2.078
  2.173   2.205   2.207   2.239   2.273   2.290   2.302   2.322
  2.334   2.342   2.355   2.400   2.412   2.441   2.467   2.511
  2.532   2.580   2.649   2.671   2.701   2.741   2.985   2.999
  3.106   3.108   3.229   3.240   3.547   3.567   3.798   3.804
  4.095   4.099   4.139   4.151   4.250   4.343   4.492   4.526
 --------------------------------------------------------------
 
          Ground-State Mulliken Net Atomic Charges

     Atom                 Charge (a.u.)    Spin (a.u.)
  --------------------------------------------------------
      1 S                     0.195557      -0.058838
      2 C                     0.065678       0.311569
      3 H                     0.252030      -0.015234
      4 C                    -0.367370      -0.029255
      5 H                     0.172604       0.001871
      6 C                     0.182471       0.133227
      7 H                     0.179961      -0.008511
      8 C                    -0.182029       0.165523
      9 C                    -0.180117       0.164522
     10 C                     0.182879       0.133345
     11 H                     0.179728      -0.008456
     12 C                    -0.369448      -0.029130
     13 H                     0.172516       0.001852
     14 C                     0.067467       0.311456
     15 H                     0.251991      -0.015246
     16 S                     0.196082      -0.058693
  --------------------------------------------------------
  Sum of atomic charges =     1.000000
  Sum of spin   charges =     1.000000

 -----------------------------------------------------------------
                    Cartesian Multipole Moments
 -----------------------------------------------------------------
    Charge (ESU x 10^10)
                 4.8032
    Dipole Moment (Debye)
         X      -3.1602      Y      -0.2279      Z     -10.3938
       Tot      10.8660
    Quadrupole Moments (Debye-Ang)
        XX     -34.6936     XY      -0.1441     YY     -65.5902
        XZ      24.5166     YZ      -4.9364     ZZ     -29.5985
    Octopole Moments (Debye-Ang^2)
       XXX     102.5661    XXY     -21.0625    XYY      35.6158
       YYY     -43.9649    XXZ      28.8162    XYZ       3.8593
       YYZ     123.1430    XZZ     -47.0487    YZZ       9.8266
       ZZZ     268.3552
    Hexadecapole Moments (Debye-Ang^3)
      XXXX   -1268.7690   XXXY      82.3491   XXYY    -290.7226
      XYYY      82.7305   YYYY    -327.9650   XXXZ    -358.1668
      XXYZ      46.8919   XYYZ    -177.1050   YYYZ     185.7959
      XXZZ    -247.6277   XYZZ     -25.1249   YYZZ    -425.9540
      XZZZ    -254.0363   YZZZ      66.6402   ZZZZ   -1982.2157
 -----------------------------------------------------------------
 Calculating analytic gradient of the SCF energy
 Gradient of SCF Energy
            1           2           3           4           5           6
    1  -0.0000557   0.0000422  -0.0000240   0.0000072  -0.0000051   0.0000947
    2  -0.0000084  -0.0000420  -0.0000132  -0.0000263  -0.0000298  -0.0138875
    3   0.0000219  -0.0000493   0.0000205   0.0000909   0.0000052   0.0005967
            7           8           9          10          11          12
    1   0.0000209   0.0033764  -0.0095355   0.0060645  -0.0000166  -0.0000312
    2  -0.0000240   0.0205232  -0.0038286  -0.0027864  -0.0000006   0.0000790
    3   0.0000081  -0.0082461   0.0198459  -0.0121708  -0.0000230  -0.0000574
           13          14          15          16
    1   0.0000060   0.0000032   0.0000157   0.0000372
    2   0.0000145  -0.0000613   0.0000395   0.0000517
    3  -0.0000158  -0.0000180  -0.0000025  -0.0000061
 Max gradient component =       2.052E-02
 RMS gradient           =       5.374E-03
 Gradient time:  CPU 1.92 s  wall 1.91 s
 Geometry Optimization Parameters
   NAtoms,    NIC,     NZ,  NCons,   NDum,   NFix, NCnnct, MaxDiis
       16     111       0       1       0       0       0       0

 Cartesian Hessian Update
 Hessian Updated using BFGS Update


** CONSTRAINED OPTIMIZATION IN DELOCALIZED INTERNAL COORDINATES **
   Searching for a Minimum

   Optimization Cycle:   9

                       Coordinates (Angstroms)
     ATOM                X               Y               Z
      1  S         0.0209997975   -0.1723712143    0.0811694176
      2  C         1.7266877390   -0.2949867837   -0.0938121189
      3  H         2.3427471705   -0.5285872097    0.7666818120
      4  C         2.1616457973   -0.0250839699   -1.3899486560
      5  H         3.1985342399   -0.0973042939   -1.6956003881
      6  C         1.1133291327    0.3272684300   -2.2415102486
      7  H         1.2284204461    0.5483994685   -3.2967132825
      8  C        -0.1481175824    0.3380209618   -1.6010151493
      9  C        -1.4343171903    0.2956944376   -2.2244165061
     10  C        -2.2730152169   -0.8336849398   -2.3737087971
     11  H        -2.1318068119   -1.7392383477   -1.7943226259
     12  C        -3.2566329205   -0.6652928064   -3.3495997226
     13  H        -3.9885504770   -1.4185406254   -3.6153966985
     14  C        -3.1866353658    0.5827138237   -3.9656411427
     15  H        -3.8676528875    0.9841999270   -4.7070476374
     16  S        -1.8806288906    1.5426330023   -3.3930126159
   Point Group: c1    Number of degrees of freedom:    42


   Energy is  -1104.551357605

              Constraints and their Current Values
                                        Value     Constraint
   Dihedral:        6   8   9  10      100.000      100.000
 Hessian Updated using BFGS Update

 40 Hessian modes will be used to form the next step
  Hessian Eigenvalues:
     0.016092    0.020572    0.044505    0.045000    0.045002    0.045002
     0.045002    0.045005    0.045012    0.045221    0.047564    0.147562
     0.159947    0.159977    0.159983    0.159997    0.160001    0.221198
     0.222362    0.237878    0.244652    0.250193    0.282128    0.284979
     0.295288    0.300907    0.312650    0.354767    0.354926    0.355126
     0.355145    0.358274    0.358695    0.382583    0.404906    0.422482
     0.452148    0.463600    0.496335    0.498404

 Minimum Search - Taking Simple RFO Step
 Searching for Lamda that Minimizes Along All modes
 Value Taken    Lamda =   0.00000000
 Step Taken.  Stepsize is  0.001442

                             Maximum     Tolerance    Cnvgd?
         Gradient           0.000072      0.000300     YES
         Displacement       0.000930      0.001200     YES
         Energy change     -0.000000      0.000001     YES

 Final energy is   -1104.55135760460     


 ******************************
 **  OPTIMIZATION CONVERGED  **
 ******************************

                       Coordinates (Angstroms)
     ATOM                X               Y               Z
      1  S         0.0209997975   -0.1723712143    0.0811694176
      2  C         1.7266877390   -0.2949867837   -0.0938121189
      3  H         2.3427471705   -0.5285872097    0.7666818120
      4  C         2.1616457973   -0.0250839699   -1.3899486560
      5  H         3.1985342399   -0.0973042939   -1.6956003881
      6  C         1.1133291327    0.3272684300   -2.2415102486
      7  H         1.2284204461    0.5483994685   -3.2967132825
      8  C        -0.1481175824    0.3380209618   -1.6010151493
      9  C        -1.4343171903    0.2956944376   -2.2244165061
     10  C        -2.2730152169   -0.8336849398   -2.3737087971
     11  H        -2.1318068119   -1.7392383477   -1.7943226259
     12  C        -3.2566329205   -0.6652928064   -3.3495997226
     13  H        -3.9885504770   -1.4185406254   -3.6153966985
     14  C        -3.1866353658    0.5827138237   -3.9656411427
     15  H        -3.8676528875    0.9841999270   -4.7070476374
     16  S        -1.8806288906    1.5426330023   -3.3930126159

Z-matrix Print:
$molecule
1 2
S 
C  1 1.719018
H  2 1.083766 1 119.906682
C  2 1.393559 1 112.989378 3 -178.053342 0
H  4 1.083410 2 123.243944 1 -177.205440 0
C  4 1.395807 2 112.452016 1 1.986233 0
H  6 1.084250 4 124.437219 2 -178.153358 0
C  6 1.414778 4 113.289161 2 0.289628 0
C  8 1.429941 6 127.185711 4 -161.782581 0
C  9 1.414638 8 127.078930 6 100.000000 0
H  10 1.084276 9 122.218874 8 16.600495 0
C  10 1.395788 9 113.282770 8 -161.955500 0
H  12 1.083390 10 124.314721 9 179.518913 0
C  12 1.393530 10 112.440896 9 0.295727 0
H  14 1.083817 12 127.056274 10 -175.920452 0
S  14 1.719012 12 113.016769 10 1.978648 0
$end

 
 --------------------------------------------------------------
 
                    Orbital Energies (a.u.)
 --------------------------------------------------------------
 
 Alpha MOs
 -- Occupied --
-89.097 -89.097 -10.434 -10.433 -10.417 -10.417 -10.394 -10.394
-10.379 -10.379  -8.156  -8.156  -6.120  -6.120  -6.116  -6.116
 -6.113  -6.113  -1.085  -1.060  -0.957  -0.929  -0.922  -0.881
 -0.785  -0.752  -0.732  -0.712  -0.698  -0.651  -0.597  -0.593
 -0.587  -0.580  -0.579  -0.556  -0.549  -0.531  -0.522  -0.456
 -0.436  -0.436  -0.406
 -- Virtual --
 -0.235  -0.204  -0.157  -0.156  -0.135  -0.124  -0.123  -0.109
 -0.099  -0.096  -0.089  -0.085  -0.080  -0.077  -0.067  -0.062
 -0.042  -0.040  -0.036  -0.029  -0.019  -0.018  -0.009  -0.006
 -0.001   0.002   0.004   0.007   0.012   0.014   0.020   0.022
  0.024   0.029   0.033   0.035   0.042   0.043   0.047   0.061
  0.070   0.072   0.074   0.078   0.088   0.091   0.100   0.103
  0.106   0.109   0.118   0.121   0.138   0.149   0.155   0.160
  0.169   0.171   0.192   0.194   0.209   0.224   0.226   0.236
  0.260   0.304   0.307   0.348   0.364   0.380   0.384   0.407
  0.413   0.447   0.457   0.464   0.469   0.497   0.499   0.507
  0.533   0.536   0.558   0.567   0.579   0.593   0.593   0.606
  0.608   0.632   0.653   0.657   0.662   0.710   0.738   0.739
  0.762   0.784   0.803   0.808   0.816   0.824   0.826   0.840
  0.851   0.858   0.861   0.914   0.916   0.917   0.930   0.938
  0.982   1.003   1.014   1.061   1.067   1.106   1.145   1.154
  1.163   1.164   1.185   1.197   1.237   1.290   1.321   1.366
  1.403   1.471   1.516   1.537   1.647   1.660   1.716   1.723
  1.728   1.743   1.786   1.821   1.834   1.835   1.896   1.905
  1.929   1.954   1.981   1.993   2.035   2.064   2.072   2.167
  2.202   2.205   2.237   2.267   2.286   2.300   2.317   2.329
  2.338   2.352   2.395   2.408   2.436   2.464   2.506   2.528
  2.574   2.646   2.668   2.699   2.739   2.983   2.997   3.106
  3.108   3.228   3.239   3.545   3.565   3.797   3.804   4.089
  4.092   4.135   4.148   4.243   4.336   4.488   4.522
 
 Beta MOs
 -- Occupied --
-89.097 -89.097 -10.431 -10.431 -10.413 -10.413 -10.392 -10.392
-10.379 -10.379  -8.156  -8.156  -6.120  -6.120  -6.116  -6.116
 -6.113  -6.113  -1.079  -1.055  -0.949  -0.927  -0.920  -0.871
 -0.781  -0.747  -0.727  -0.709  -0.697  -0.648  -0.590  -0.590
 -0.582  -0.577  -0.576  -0.543  -0.541  -0.529  -0.520  -0.438
 -0.434  -0.424
 -- Virtual --
 -0.339  -0.216  -0.186  -0.153  -0.153  -0.128  -0.120  -0.114
 -0.108  -0.099  -0.095  -0.088  -0.085  -0.079  -0.075  -0.067
 -0.062  -0.041  -0.039  -0.035  -0.028  -0.018  -0.018  -0.009
 -0.004  -0.000   0.003   0.004   0.009   0.014   0.016   0.021
  0.023   0.025   0.031   0.035   0.036   0.043   0.044   0.048
  0.062   0.070   0.074   0.075   0.080   0.089   0.092   0.100
  0.104   0.108   0.110   0.121   0.122   0.139   0.150   0.156
  0.162   0.170   0.173   0.193   0.196   0.210   0.225   0.228
  0.239   0.263   0.307   0.309   0.351   0.365   0.380   0.384
  0.408   0.414   0.448   0.458   0.466   0.476   0.507   0.510
  0.511   0.535   0.538   0.559   0.568   0.582   0.597   0.599
  0.609   0.612   0.637   0.654   0.662   0.668   0.712   0.740
  0.743   0.767   0.785   0.806   0.809   0.818   0.826   0.829
  0.842   0.854   0.860   0.863   0.916   0.917   0.919   0.932
  0.939   0.987   1.007   1.018   1.067   1.070   1.109   1.150
  1.155   1.169   1.170   1.192   1.200   1.244   1.294   1.329
  1.370   1.412   1.481   1.529   1.548   1.651   1.666   1.724
  1.726   1.731   1.745   1.789   1.828   1.839   1.840   1.903
  1.911   1.938   1.962   1.988   2.004   2.049   2.069   2.078
  2.173   2.205   2.207   2.239   2.273   2.290   2.302   2.322
  2.334   2.342   2.355   2.400   2.412   2.441   2.467   2.511
  2.532   2.580   2.649   2.671   2.701   2.741   2.985   2.999
  3.106   3.108   3.229   3.240   3.547   3.567   3.798   3.804
  4.095   4.099   4.139   4.151   4.250   4.343   4.492   4.526
 --------------------------------------------------------------
 
          Ground-State Mulliken Net Atomic Charges

     Atom                 Charge (a.u.)    Spin (a.u.)
  --------------------------------------------------------
      1 S                     0.195557      -0.058838
      2 C                     0.065678       0.311569
      3 H                     0.252030      -0.015234
      4 C                    -0.367370      -0.029255
      5 H                     0.172604       0.001871
      6 C                     0.182471       0.133227
      7 H                     0.179961      -0.008511
      8 C                    -0.182029       0.165523
      9 C                    -0.180117       0.164522
     10 C                     0.182879       0.133345
     11 H                     0.179728      -0.008456
     12 C                    -0.369448      -0.029130
     13 H                     0.172516       0.001852
     14 C                     0.067467       0.311456
     15 H                     0.251991      -0.015246
     16 S                     0.196082      -0.058693
  --------------------------------------------------------
  Sum of atomic charges =     1.000000
  Sum of spin   charges =     1.000000

 -----------------------------------------------------------------
                    Cartesian Multipole Moments
 -----------------------------------------------------------------
    Charge (ESU x 10^10)
                 4.8032
    Dipole Moment (Debye)
         X      -3.1602      Y      -0.2279      Z     -10.3938
       Tot      10.8660
    Quadrupole Moments (Debye-Ang)
        XX     -34.6936     XY      -0.1441     YY     -65.5902
        XZ      24.5166     YZ      -4.9364     ZZ     -29.5985
    Octopole Moments (Debye-Ang^2)
       XXX     102.5661    XXY     -21.0625    XYY      35.6158
       YYY     -43.9649    XXZ      28.8162    XYZ       3.8593
       YYZ     123.1430    XZZ     -47.0487    YZZ       9.8266
       ZZZ     268.3552
    Hexadecapole Moments (Debye-Ang^3)
      XXXX   -1268.7690   XXXY      82.3491   XXYY    -290.7226
      XYYY      82.7305   YYYY    -327.9650   XXXZ    -358.1668
      XXYZ      46.8919   XYYZ    -177.1050   YYYZ     185.7959
      XXZZ    -247.6277   XYZZ     -25.1249   YYZZ    -425.9540
      XZZZ    -254.0363   YZZZ      66.6402   ZZZZ   -1982.2157
 -----------------------------------------------------------------
Archival summary:
1\1\nid00851\OPT\ProcedureUnspecified\BasisUnspecified\286(1+,2)\bwood\WedMay3102:27:432017WedMay3102:27:432017\0\\#,OPT,ProcedureUnspecified,BasisUnspecified,\\1,2\S\C,1,1.71902\H,2,1.08377,1,119.907\C,2,1.39356,1,112.989,3,-178.053,0\H,4,1.08341,2,123.244,1,-177.205,0\C,4,1.39581,2,112.452,1,1.98623,0\H,6,1.08425,4,124.437,2,-178.153,0\C,6,1.41478,4,113.289,2,0.289628,0\C,8,1.42994,6,127.186,4,-161.783,0\C,9,1.41464,8,127.079,6,100,0\H,10,1.08428,9,122.219,8,16.6005,0\C,10,1.39579,9,113.283,8,-161.956,0\H,12,1.08339,10,124.315,9,179.519,0\C,12,1.39353,10,112.441,9,0.295727,0\H,14,1.08382,12,127.056,10,-175.92,0\S,14,1.71901,12,113.017,10,1.97865,0\\\@

 Total job time:  110.89s(wall), 108.92s(cpu) 
 Wed May 31 02:27:43 2017

        *************************************************************
        *                                                           *
        *  Thank you very much for using Q-Chem.  Have a nice day.  *
        *                                                           *
        *************************************************************


0 sent ACK to 0 
now end server 0 ... 
