srun -N 1 --ntasks-per-node 16 --cpus-per-task 4 --cpu_bind=cores --nodelist nid00794 /global/project/projectdirs/jcesr/qchem/qc44/cnl_qc441/dist/exe/qcprog.cori.haswell.exe .pt_n2_cation_10.0.in.26517.qcin.1 /global/cscratch1/sd/bwood/qchem/nx/qchem26517/
Process 0 of 16 is on nid00794 - thread support 0
Process 1 of 16 is on nid00794 - thread support 0
Process 2 of 16 is on nid00794 - thread support 0
Process 3 of 16 is on nid00794 - thread support 0
Process 4 of 16 is on nid00794 - thread support 0
Process 5 of 16 is on nid00794 - thread support 0
Process 6 of 16 is on nid00794 - thread support 0
Process 15 of 16 is on nid00794 - thread support 0
initial socket setup ...start
initial socket setup ...done 
now start server 0 ... 
nid00794 10.128.3
Q-Chem Developer Version! Running on 10.128.3.*
                  Welcome to Q-Chem
     A Quantum Leap Into The Future Of Chemistry


 Q-Chem 4.4, Q-Chem, Inc., Pleasanton, CA (2016)

 Y. Shao,  Z. Gan,  E. Epifanovsky,  A. T. B. Gilbert,  M. Wormit,  
 J. Kussmann,  A. W. Lange,  A. Behn,  J. Deng,  X. Feng,  D. Ghosh,  
 M. Goldey,  P. R. Horn,  L. D. Jacobson,  I. Kaliman,  F. Rob,  
 R. Z. Khaliullin,  T. Kus,  A. Landau,  J. Liu,  E. I. Proynov,  Y. M. Rhee,  
 R. M. Richard,  M. A. Rohrdanz,  R. P. Steele,  E. J. Sundstrom,  
 H. L. Woodcock III,  P. M. Zimmerman,  D. Zuev,  B. Albrecht,  E. Alguire,  
 B. Austin,  S. A. Baeppler,  G. J. O. Beran,  Y. A. Bernard,  
 E. J. Berquist,  K. Brandhorst,  K. B. Bravaya,  S. T. Brown,  D. Casanova,  
 C.-M. Chang,  Y. Chen,  S. H. Chien,  K. D. Closser,  M. P. Coons,  
 D. L. Crittenden,  S. Dasgupta,  M. Diedenhofen,  R. A. DiStasio Jr.,  
 H. Do,  A. D. Dutoi,  R. G. Edgar,  P.-T. Fang,  S. Fatehi,  Q. Feng,  
 L. Fusti-Molnar,  A. Ghysels,  A. Golubeva-Zadorozhnaya,  J. Gomes,  
 A. Gunina,  M. W. D. Hanson-Heine,  P. H. P. Harbach,  A. W. Hauser,  
 J. E. Herr,  E. G. Hohenstein,  Z. C. Holden,  K. Hui,  T.-C. Jagau,  H. Ji,  
 B. Kaduk,  K. Khistyaev,  Jaehoon Kim,  Jihan Kim,  R. A. King,  
 P. Klunzinger,  K. Koh,  D. Kosenkov,  T. Kowalczyk,  C. M. Krauter,  
 A. Kunitsa,  K. U. Lao,  A. Laurent,  K. V. Lawler,  J. Lee,  D. Lefrancois,  
 S. Lehtola,  S. V. Levchenko,  C. Y. Lin,  Y.-S. Lin,  F. Liu,  E. Livshits,  
 R. C. Lochan,  A. Luenser,  P. Manohar,  S. F. Manzer,  S.-P. Mao,  Y. Mao,  
 N. Mardirossian,  A. V. Marenich,  L. A. Martinez-Martinez,  S. A. Maurer,  
 N. J. Mayhall,  J.-M. Mewes,  A. F. Morrison,  K. Nanda,  T. S. Nguyen-Beck,  
 C. M. Oana,  R. Olivares-Amaya,  D. P. O'Neill,  J. A. Parkhill,  
 T. M. Perrine,  R. Peverati,  P. A. Pieniazek,  F. Plasser,  A. Prociuk,  
 D. R. Rehn,  E. Rosta,  N. J. Russ,  N. Sergueev,  S. M. Sharada,  
 S. Sharma,  D. W. Small,  A. Sodt,  T. Stauch,  T. Stein,  D. Stuck,  
 Y.-C. Su,  A. J. W. Thom,  T. Tsuchimochi,  L. Vogt,  O. Vydrov,  T. Wang,  
 M. A. Watson,  J. Wenzel,  A. White,  C. F. Williams,  V. Vanovschi,  
 K. Yao,  S. Yeganeh,  S. R. Yost,  Z.-Q. You,  I. Y. Zhang,  X. Zhang,  
 Y. Zhao,  B. R. Brooks,  G. K. L. Chan,  D. M. Chipman,  C. J. Cramer,  
 W. A. Goddard III,  M. S. Gordon,  W. J. Hehre,  A. Klamt,  
 H. F. Schaefer III,  M. W. Schmidt,  C. D. Sherrill,  D. G. Truhlar,  
 A. Warshel,  X. Xu,  A. Aspuru-Guzik,  R. Baer,  A. T. Bell,  N. A. Besley,  
 J.-D. Chai,  A. Dreuw,  B. D. Dunietz,  T. R. Furlani,  S. R. Gwaltney,  
 C.-P. Hsu,  Y. Jung,  J. Kong,  D. S. Lambrecht,  W. Liang,  C. Ochsenfeld,  
 V. A. Rassolov,  L. V. Slipchenko,  J. E. Subotnik,  T. Van Voorhis,  
 J. M. Herbert,  A. I. Krylov,  P. M. W. Gill,  M. Head-Gordon

 Contributors to earlier versions of Q-Chem not listed above: 
 R. D. Adamson,  J. Baker,  E. F. C. Byrd,  A. K. Chakraborty,  C.-L. Cheng,  
 H. Dachsel,  R. J. Doerksen,  G. Hawkins,  A. Heyden,  S. Hirata,  
 G. Kedziora,  F. J. Keil,  C. Kelley,  P. P. Korambath,  W. Kurlancheek,  
 A. M. Lee,  M. S. Lee,  D. Liotard,  I. Lotan,  P. E. Maslen,  N. Nair,  
 D. Neuhauser,  R. Olson,  B. Peters,  J. Ritchie,  N. E. Schultz,  
 N. Shenvi,  A. C. Simmonett,  K. S. Thanthiriwatte,  Q. Wu,  W. Zhang

 Please cite Q-Chem as follows:
 Y. Shao et al., Mol. Phys. 113, 184-215 (2015)
 DOI: 10.1080/00268976.2014.952696

 Q-Chem 4.4.2 for Intel X86 EM64T Linux

 Parts of Q-Chem use Armadillo 5.200.1 (Boston Tea Smuggler).
 http://arma.sourceforge.net/

 Q-Chem begins on Wed May 31 02:25:48 2017  

Host: nid00776
0

     Scratch files written to /global/cscratch1/sd/bwood/qchem/nx/qchem26517.0//
 Parallel job on  16  processors

Checking the input file for inconsistencies... 	...done.

--------------------------------------------------------------
User input:
--------------------------------------------------------------
$molecule
 1  2
 S           0.00238887        0.06077275        0.00183269
 C           1.73707619        0.03315849        0.00323229
 H           2.27612737        0.05289032        0.94042557
 C           2.24169204       -0.01546201       -1.26965798
 H           3.30285780       -0.04005365       -1.48972496
 C           1.22479222       -0.01612968       -2.26811464
 H           1.42674790       -0.02650987       -3.33334501
 C          -0.05393771        0.02880388       -1.75170966
 C          -1.32450815        0.04889988       -2.45636342
 C          -1.57705346       -0.15765971       -3.79710666
 H          -0.79579543       -0.38859800       -4.51273328
 C          -2.95863404       -0.07068413       -4.13556656
 H          -3.34391574       -0.21295066       -5.13876788
 C          -3.75498914        0.19987576       -3.05401671
 H          -4.83023938        0.31053419       -3.02126160
 S          -2.82293145        0.37079597       -1.60088560
$end


$rem
         jobtype = opt
        exchange = b3lyp
           basis = 6-31++g**
  max_scf_cycles = 150
      mem_static = 775
       mem_total = 7750
      sym_ignore = true
        symmetry = false
          thresh = 12
$end


$opt
CONSTRAINT
tors 6 8 9 10 10.0
ENDCONSTRAINT
$end

--------------------------------------------------------------
 ----------------------------------------------------------------
             Standard Nuclear Orientation (Angstroms)
    I     Atom           X                Y                Z
 ----------------------------------------------------------------
    1      S       0.0023888700     0.0607727500     0.0018326900
    2      C       1.7370761900     0.0331584900     0.0032322900
    3      H       2.2761273700     0.0528903200     0.9404255700
    4      C       2.2416920400    -0.0154620100    -1.2696579800
    5      H       3.3028578000    -0.0400536500    -1.4897249600
    6      C       1.2247922200    -0.0161296800    -2.2681146400
    7      H       1.4267479000    -0.0265098700    -3.3333450100
    8      C      -0.0539377100     0.0288038800    -1.7517096600
    9      C      -1.3245081500     0.0488998800    -2.4563634200
   10      C      -1.5770534600    -0.1576597100    -3.7971066600
   11      H      -0.7957954300    -0.3885980000    -4.5127332800
   12      C      -2.9586340400    -0.0706841300    -4.1355665600
   13      H      -3.3439157400    -0.2129506600    -5.1387678800
   14      C      -3.7549891400     0.1998757600    -3.0540167100
   15      H      -4.8302393800     0.3105341900    -3.0212616000
   16      S      -2.8229314500     0.3707959700    -1.6008856000
 ----------------------------------------------------------------
 Nuclear Repulsion Energy =   633.0530839557 hartrees
 There are       43 alpha and       42 beta electrons
 Requested basis set is 6-31++G(d,p)
 There are 76 shells and 234 basis functions

 Total QAlloc Memory Limit   7750 MB
 Mega-Array Size       758 MB
 MEM_STATIC part       775 MB
 A cutoff of  1.0D-12 yielded   2529 shell pairs
 There are     24877 function pairs

 Q-Chem warning in module /project/projectdirs/jcesr/qchem/qc44/cnl_qc441/compile/cori/qc_src/libqints/qchem/aobasis.C, line 68:

 Using reconstructed effective core potential

 
 -------------------------------------------------------
 OpenMP Integral Computing Module                       
 Release: version 1.0, May 2013, Q-Chem Inc. Pittsburgh 
 -------------------------------------------------------
 Integral Job Info:
 Integral job number is                      11
 Integral operator is                         1
 short-range coefficients                     0
 long-range coefficients              100000000
 Omega coefficients                           0
 if combine SR and LR in K                    0
 Integral screening is                        0
 Integral computing path is                   2
 max size of driver memory is            800000
 size of driver memory is                593474
 size of scratch memory is             15166112
 max col of scratch BK array               1296
 max len of scratch array in speh3          155
 max len of scratch index in speh4           18
 max int batch size is                      520
 min int batch size is                       52
 fixed nKL is                                52
 max L of basis functions is                  2
 order of int derivative is                   0
 number of shells is                         76
 number of basis is                         234
 number of cartesian basis is               234
 number of contracted shell pairs          2529
 number of primitive shell pairs           8247
 maxK2 (contraction) of shell pair           36
 max number of K2 of shell pair               1
 max number of CS2 of shell pair            260
 max number of PS2 of shell pair           1500
 mem total for path MDJ                   51992
 -------------------------------------------------------
 Smallest overlap matrix eigenvalue = 7.32E-07
 Linear dependence detected in AO basis
 Number of orthogonalized atomic orbitals = 233
 Maximum deviation from orthogonality = 6.474E-11

 Scale SEOQF with 1.000000e-01/1.000000e-01/1.000000e-02

 Standard Electronic Orientation quadrupole field applied
 Nucleus-field energy     =     0.0000000097 hartrees
 Guess from superposition of atomic densities
 Warning:  Energy on first SCF cycle will be non-variational
 An unrestricted hybrid HF-DFT SCF calculation will be
 performed using Pulay DIIS extrapolation
 Exchange:     0.2000 Hartree-Fock + 0.0800 Slater + 0.7200 B88
 Correlation:  0.1900 VWN1RPA + 0.8100 LYP
 Using SG-1 standard quadrature grid
 SCF converges when DIIS error is below 1.0E-08
 Inaccurate integrated density:
   Number of electrons =    85
   Numerical integral  =    86.000574298887
   Relative error      =     1.1771462340 %
 ---------------------------------------
  Cycle       Energy         DIIS Error
 ---------------------------------------
    1   -1107.1737715812      4.42E-02
    2   -1104.4466807646      3.86E-03
    3   -1104.2041347141      6.59E-03
    4   -1104.5591954413      6.75E-04
    5   -1104.5623142180      3.99E-04
    6   -1104.5633933880      1.96E-04
    7   -1104.5637611286      6.21E-05
    8   -1104.5638417250      2.74E-05
    9   -1104.5638908639      1.50E-05
   10   -1104.5639248962      5.12E-06
   11   -1104.5639292181      2.71E-06
   12   -1104.5639297039      1.48E-06
   13   -1104.5639298336      4.85E-07
   14   -1104.5639298423      3.00E-07
   15   -1104.5639298473      8.45E-08
   16   -1104.5639298471      3.72E-08
   17   -1104.5639298479      1.80E-08
   18   -1104.5639298478      4.60E-09 Convergence criterion met
 ---------------------------------------
 <S^2> = 0.7651
 SCF time:  CPU 12.30 s  wall 11.74 s
 SCF   energy in the final basis set = -1104.5639298478
 Total energy in the final basis set = -1104.5639298478
 
 --------------------------------------------------------------
 
                    Orbital Energies (a.u.)
 --------------------------------------------------------------
 
 Alpha MOs
 -- Occupied --
-89.094 -89.094 -10.435 -10.434 -10.418 -10.418 -10.394 -10.394
-10.381 -10.381  -8.153  -8.153  -6.117  -6.117  -6.113  -6.113
 -6.110  -6.110  -1.088  -1.064  -0.960  -0.929  -0.915  -0.893
 -0.786  -0.759  -0.730  -0.711  -0.703  -0.652  -0.601  -0.595
 -0.594  -0.582  -0.582  -0.557  -0.552  -0.531  -0.514  -0.474
 -0.439  -0.431  -0.404
 -- Virtual --
 -0.242  -0.179  -0.171  -0.144  -0.127  -0.120  -0.113  -0.105
 -0.100  -0.097  -0.092  -0.081  -0.076  -0.072  -0.068  -0.061
 -0.051  -0.044  -0.040  -0.031  -0.022  -0.020  -0.010  -0.007
 -0.007  -0.002   0.007   0.014   0.017   0.017   0.019   0.025
  0.031   0.033   0.037   0.038   0.046   0.056   0.057   0.059
  0.062   0.070   0.077   0.078   0.090   0.101   0.102   0.109
  0.118   0.127   0.147   0.149   0.152   0.154   0.157   0.165
  0.171   0.180   0.195   0.208   0.233   0.240   0.242   0.268
  0.285   0.312   0.339   0.384   0.390   0.399   0.406   0.414
  0.432   0.459   0.473   0.479   0.483   0.496   0.512   0.513
  0.539   0.546   0.558   0.559   0.571   0.582   0.604   0.627
  0.638   0.648   0.661   0.671   0.715   0.758   0.766   0.777
  0.785   0.788   0.806   0.825   0.831   0.838   0.843   0.856
  0.856   0.869   0.913   0.915   0.945   0.949   0.971   1.003
  1.013   1.023   1.036   1.071   1.082   1.155   1.157   1.173
  1.177   1.188   1.200   1.277   1.327   1.350   1.367   1.410
  1.463   1.507   1.525   1.598   1.668   1.693   1.720   1.744
  1.748   1.796   1.815   1.833   1.843   1.894   1.914   1.935
  1.941   1.984   2.003   2.062   2.066   2.111   2.113   2.190
  2.200   2.235   2.282   2.293   2.309   2.322   2.332   2.360
  2.369   2.390   2.403   2.425   2.512   2.516   2.546   2.579
  2.616   2.675   2.774   2.804   2.965   3.040   3.107   3.109
  3.222   3.263   3.536   3.583   3.767   3.851   4.035   4.117
  4.122   4.154   4.213   4.363   4.465   4.553
 
 Beta MOs
 -- Occupied --
-89.094 -89.094 -10.433 -10.432 -10.414 -10.414 -10.392 -10.392
-10.381 -10.381  -8.153  -8.153  -6.118  -6.118  -6.114  -6.114
 -6.110  -6.110  -1.083  -1.058  -0.952  -0.927  -0.913  -0.883
 -0.782  -0.755  -0.726  -0.708  -0.701  -0.649  -0.598  -0.592
 -0.581  -0.580  -0.578  -0.550  -0.540  -0.531  -0.513  -0.445
 -0.435  -0.427
 -- Virtual --
 -0.339  -0.222  -0.175  -0.155  -0.132  -0.126  -0.118  -0.111
 -0.105  -0.099  -0.092  -0.084  -0.080  -0.074  -0.072  -0.067
 -0.059  -0.049  -0.043  -0.039  -0.030  -0.022  -0.017  -0.010
 -0.007  -0.006  -0.001   0.008   0.015   0.018   0.018   0.020
  0.026   0.033   0.034   0.038   0.039   0.046   0.056   0.058
  0.061   0.064   0.071   0.078   0.080   0.090   0.102   0.103
  0.111   0.119   0.128   0.149   0.149   0.152   0.155   0.159
  0.167   0.172   0.182   0.197   0.210   0.234   0.242   0.244
  0.271   0.287   0.314   0.339   0.384   0.393   0.401   0.408
  0.416   0.433   0.460   0.482   0.488   0.491   0.500   0.513
  0.516   0.540   0.555   0.560   0.562   0.573   0.591   0.605
  0.629   0.642   0.652   0.669   0.676   0.716   0.760   0.767
  0.783   0.788   0.790   0.810   0.826   0.832   0.839   0.844
  0.857   0.858   0.870   0.915   0.917   0.946   0.950   0.975
  1.007   1.017   1.027   1.042   1.079   1.084   1.159   1.162
  1.182   1.183   1.196   1.202   1.281   1.331   1.354   1.377
  1.419   1.468   1.521   1.538   1.602   1.675   1.696   1.721
  1.746   1.750   1.803   1.820   1.839   1.846   1.899   1.917
  1.945   1.951   1.998   2.012   2.072   2.073   2.115   2.117
  2.194   2.203   2.241   2.285   2.299   2.310   2.326   2.338
  2.364   2.374   2.396   2.406   2.430   2.514   2.520   2.552
  2.582   2.622   2.677   2.777   2.806   2.966   3.041   3.107
  3.110   3.224   3.264   3.537   3.585   3.767   3.851   4.041
  4.120   4.129   4.157   4.220   4.370   4.469   4.557
 --------------------------------------------------------------
 
          Ground-State Mulliken Net Atomic Charges

     Atom                 Charge (a.u.)    Spin (a.u.)
  --------------------------------------------------------
      1 S                    -0.086397      -0.056673
      2 C                     0.160551       0.318388
      3 H                     0.259740      -0.015379
      4 C                    -0.412856      -0.038575
      5 H                     0.175488       0.000401
      6 C                     0.455362       0.169839
      7 H                     0.154111      -0.009756
      8 C                    -0.206271       0.131750
      9 C                    -0.203665       0.131845
     10 C                     0.455267       0.169682
     11 H                     0.154144      -0.009740
     12 C                    -0.414286      -0.038531
     13 H                     0.175434       0.000397
     14 C                     0.160722       0.318281
     15 H                     0.259725      -0.015381
     16 S                    -0.087071      -0.056547
  --------------------------------------------------------
  Sum of atomic charges =     1.000000
  Sum of spin   charges =     1.000000

 -----------------------------------------------------------------
                    Cartesian Multipole Moments
 -----------------------------------------------------------------
    Charge (ESU x 10^10)
                 4.8032
    Dipole Moment (Debye)
         X      -3.1332      Y       0.1400      Z     -10.4305
       Tot      10.8918
    Quadrupole Moments (Debye-Ang)
        XX     -28.3872     XY      -1.5064     YY     -73.0197
        XZ      21.6469     YZ       1.0946     ZZ     -26.2842
    Octopole Moments (Debye-Ang^2)
       XXX      78.9897    XXY       2.3780    XYY      60.4602
       YYY     -16.5377    XXZ      21.2991    XYZ       1.9164
       YYZ     133.4030    XZZ     -20.3255    YZZ     -13.1069
       ZZZ     205.8848
    Hexadecapole Moments (Debye-Ang^3)
      XXXX   -1292.6506   XXXY       4.5125   XXYY    -365.2679
      XYYY      46.2676   YYYY    -100.8862   XXXZ    -259.2475
      XXYZ      -7.8746   XYYZ    -223.5953   YYYZ      15.2557
      XXZZ    -327.0990   XYZZ      20.1133   YYZZ    -419.1398
      XZZZ    -273.3395   YZZZ      61.5161   ZZZZ   -1489.7552
 -----------------------------------------------------------------
 Calculating analytic gradient of the SCF energy
 Gradient of SCF Energy
            1           2           3           4           5           6
    1  -0.0009421   0.0185073  -0.0005871   0.0023292   0.0004467  -0.0358910
    2  -0.0015888  -0.0004407   0.0006134   0.0000350  -0.0001345   0.0013742
    3  -0.0128826  -0.0087434  -0.0011023   0.0314670   0.0005782   0.0033200
            7           8           9          10          11          12
    1  -0.0015958   0.0407500  -0.0224005   0.0163037   0.0012070  -0.0274373
    2   0.0004608   0.0001551  -0.0047311   0.0035446  -0.0003319   0.0060073
    3  -0.0004663   0.0005705  -0.0335820   0.0317873   0.0011228   0.0141391
           13          14          15          16
    1  -0.0007060  -0.0025874   0.0011522   0.0114511
    2   0.0001808  -0.0034610  -0.0007759  -0.0009071
    3  -0.0000913  -0.0199754   0.0000230  -0.0061646
 Max gradient component =       4.075E-02
 RMS gradient           =       1.375E-02
 Gradient time:  CPU 1.94 s  wall 1.94 s
 Geometry Optimization Parameters
   NAtoms,    NIC,     NZ,  NCons,   NDum,   NFix, NCnnct, MaxDiis
       16     111       0       1       0       0       0       0


** CONSTRAINED OPTIMIZATION IN DELOCALIZED INTERNAL COORDINATES **
   Searching for a Minimum

   Optimization Cycle:   1

                       Coordinates (Angstroms)
     ATOM                X               Y               Z
      1  S         0.0023888700    0.0607727500    0.0018326900
      2  C         1.7370761900    0.0331584900    0.0032322900
      3  H         2.2761273700    0.0528903200    0.9404255700
      4  C         2.2416920400   -0.0154620100   -1.2696579800
      5  H         3.3028578000   -0.0400536500   -1.4897249600
      6  C         1.2247922200   -0.0161296800   -2.2681146400
      7  H         1.4267479000   -0.0265098700   -3.3333450100
      8  C        -0.0539377100    0.0288038800   -1.7517096600
      9  C        -1.3245081500    0.0488998800   -2.4563634200
     10  C        -1.5770534600   -0.1576597100   -3.7971066600
     11  H        -0.7957954300   -0.3885980000   -4.5127332800
     12  C        -2.9586340400   -0.0706841300   -4.1355665600
     13  H        -3.3439157400   -0.2129506600   -5.1387678800
     14  C        -3.7549891400    0.1998757600   -3.0540167100
     15  H        -4.8302393800    0.3105341900   -3.0212616000
     16  S        -2.8229314500    0.3707959700   -1.6008856000
   Point Group: c1    Number of degrees of freedom:    42


   Energy is  -1104.563929848

              Constraints and their Current Values
                                        Value     Constraint
   Dihedral:        6   8   9  10       10.000       10.000

 Attempting to Generate Delocalized Internal Coordinates

 41 Hessian modes will be used to form the next step
  Hessian Eigenvalues:
     0.045000    0.045000    0.045000    0.045000    0.045000    0.045000
     0.045002    0.045002    0.045003    0.045004    0.045011    0.045012
     0.159943    0.159949    0.159991    0.159992    0.160000    0.160000
     0.221282    0.221282    0.237835    0.237839    0.250000    0.250000
     0.294264    0.294663    0.312518    0.312618    0.354736    0.354850
     0.355125    0.355132    0.358226    0.358329    0.378510    0.404854
     0.404909    0.463547    0.463616    0.497922    0.497945

 Minimum Search - Taking Simple RFO Step
 Searching for Lamda that Minimizes Along All modes
 Value Taken    Lamda =  -0.01200634
 Step Taken.  Stepsize is  0.183340

                             Maximum     Tolerance    Cnvgd?
         Gradient           0.030868      0.000300      NO
         Displacement       0.084949      0.001200      NO
         Energy change     *********      0.000001      NO


 New Cartesian Coordinates Obtained by Inverse Iteration

 Displacement from previous Coordinates is:  0.464790
 ----------------------------------------------------------------
             Standard Nuclear Orientation (Angstroms)
    I     Atom           X                Y                Z
 ----------------------------------------------------------------
    1      S      -0.0181452124     0.0734148712     0.0544743738
    2      C       1.7072518552     0.0311815323    -0.0283351860
    3      H       2.2754036546     0.0430806844     0.8937216590
    4      C       2.2035651664    -0.0163288014    -1.3267621059
    5      H       3.2593511614    -0.0449311229    -1.5688098042
    6      C       1.1852511114    -0.0162215810    -2.2837784174
    7      H       1.3658960969    -0.0306957340    -3.3525480745
    8      C      -0.0984227581     0.0328697118    -1.7082116533
    9      C      -1.3375393247     0.0574810234    -2.3959466042
   10      C      -1.5428069149    -0.1573758812    -3.7717738200
   11      H      -0.7465050292    -0.3828902541    -4.4719538347
   12      C      -2.8903442327    -0.0762927314    -4.1332030645
   13      H      -3.2536814377    -0.2172545935    -5.1442651008
   14      C      -3.7124138924     0.1993552998    -3.0457373944
   15      H      -4.7896776437     0.3123421880    -3.0466974436
   16      S      -2.8575047102     0.3699489184    -1.5539369393
 ----------------------------------------------------------------
 Nuclear Repulsion Energy =   633.4059245394 hartrees
 There are       43 alpha and       42 beta electrons
 Applying Cartesian multipole field
    Component          Value
    ---------          -----
     (2,0,0)        1.00000E-11
     (0,2,0)        2.00000E-11
     (0,0,2)       -3.00000E-12
 Nucleus-field energy     =     0.0000000096 hartrees
 Requested basis set is 6-31++G(d,p)
 There are 76 shells and 234 basis functions
 A cutoff of  1.0D-12 yielded   2535 shell pairs
 There are     24901 function pairs

 Q-Chem warning in module /project/projectdirs/jcesr/qchem/qc44/cnl_qc441/compile/cori/qc_src/libqints/qchem/aobasis.C, line 68:

 Using reconstructed effective core potential

 Smallest overlap matrix eigenvalue = 5.92E-07
 Linear dependence detected in AO basis
 Number of orthogonalized atomic orbitals = 233
 Maximum deviation from orthogonality = 1.069E-10
 Guess MOs from SCF MO coefficient file
 Reading MOs from coefficient file
 Reading MOs from coefficient file
 An unrestricted hybrid HF-DFT SCF calculation will be
 performed using Pulay DIIS extrapolation
 Exchange:     0.2000 Hartree-Fock + 0.0800 Slater + 0.7200 B88
 Correlation:  0.1900 VWN1RPA + 0.8100 LYP
 Using SG-1 standard quadrature grid
 SCF converges when DIIS error is below 1.0E-08
 Geometry optimization detected.  Setting ReadMinima to 0
 Setting SaveMinima to 0
 ---------------------------------------
  Cycle       Energy         DIIS Error
 ---------------------------------------
    1   -1104.5200954444      2.77E-03
    2   -1104.5681255949      4.67E-04
    3   -1104.5636104407      8.84E-04
    4   -1104.5697898163      1.37E-04
    5   -1104.5699302347      4.35E-05
    6   -1104.5699448242      7.79E-06
    7   -1104.5699458360      5.47E-06
    8   -1104.5699463306      1.69E-06
    9   -1104.5699465336      5.85E-07
   10   -1104.5699466457      3.48E-07
   11   -1104.5699466649      2.08E-07
   12   -1104.5699466678      8.08E-08
   13   -1104.5699466672      5.97E-08
   14   -1104.5699466677      3.01E-08
   15   -1104.5699466682      7.66E-09 Convergence criterion met
 ---------------------------------------
 <S^2> = 0.7683
 SCF time:  CPU 10.32 s  wall 9.69 s
 SCF   energy in the final basis set = -1104.5699466682
 Total energy in the final basis set = -1104.5699466682
 
 --------------------------------------------------------------
 
                    Orbital Energies (a.u.)
 --------------------------------------------------------------
 
 Alpha MOs
 -- Occupied --
-89.098 -89.098 -10.431 -10.431 -10.418 -10.418 -10.393 -10.393
-10.379 -10.379  -8.157  -8.157  -6.121  -6.121  -6.117  -6.117
 -6.114  -6.114  -1.086  -1.060  -0.957  -0.934  -0.920  -0.881
 -0.787  -0.758  -0.727  -0.712  -0.704  -0.646  -0.594  -0.593
 -0.591  -0.584  -0.578  -0.555  -0.549  -0.540  -0.522  -0.471
 -0.443  -0.435  -0.393
 -- Virtual --
 -0.248  -0.185  -0.172  -0.143  -0.127  -0.125  -0.112  -0.106
 -0.100  -0.096  -0.092  -0.081  -0.076  -0.070  -0.067  -0.059
 -0.051  -0.045  -0.040  -0.028  -0.021  -0.018  -0.011  -0.008
 -0.003  -0.000   0.009   0.014   0.016   0.016   0.018   0.025
  0.032   0.032   0.036   0.037   0.047   0.056   0.059   0.060
  0.067   0.071   0.079   0.080   0.087   0.097   0.104   0.104
  0.115   0.131   0.146   0.149   0.154   0.154   0.156   0.170
  0.176   0.178   0.200   0.204   0.230   0.236   0.241   0.272
  0.286   0.311   0.339   0.381   0.388   0.401   0.401   0.416
  0.431   0.459   0.477   0.480   0.484   0.496   0.512   0.513
  0.542   0.553   0.556   0.559   0.573   0.587   0.609   0.619
  0.637   0.645   0.662   0.671   0.709   0.760   0.763   0.773
  0.782   0.788   0.812   0.830   0.833   0.834   0.847   0.856
  0.860   0.865   0.909   0.912   0.938   0.945   0.979   0.996
  1.031   1.031   1.039   1.073   1.084   1.161   1.163   1.174
  1.176   1.184   1.188   1.284   1.329   1.349   1.366   1.400
  1.470   1.507   1.522   1.619   1.647   1.710   1.727   1.752
  1.756   1.820   1.821   1.835   1.839   1.901   1.907   1.924
  1.946   1.992   2.013   2.057   2.070   2.112   2.122   2.192
  2.201   2.233   2.272   2.292   2.307   2.326   2.328   2.368
  2.374   2.387   2.393   2.415   2.511   2.517   2.549   2.571
  2.636   2.682   2.770   2.802   2.968   3.037   3.107   3.108
  3.219   3.259   3.536   3.589   3.764   3.848   4.041   4.104
  4.121   4.159   4.217   4.358   4.470   4.560
 
 Beta MOs
 -- Occupied --
-89.098 -89.098 -10.429 -10.429 -10.414 -10.414 -10.391 -10.391
-10.380 -10.380  -8.157  -8.157  -6.121  -6.121  -6.118  -6.117
 -6.114  -6.114  -1.081  -1.055  -0.950  -0.932  -0.918  -0.870
 -0.782  -0.754  -0.722  -0.709  -0.702  -0.643  -0.592  -0.588
 -0.582  -0.579  -0.575  -0.547  -0.540  -0.538  -0.521  -0.443
 -0.439  -0.431
 -- Virtual --
 -0.327  -0.226  -0.182  -0.156  -0.132  -0.127  -0.123  -0.110
 -0.105  -0.099  -0.091  -0.083  -0.080  -0.074  -0.070  -0.066
 -0.057  -0.049  -0.045  -0.039  -0.027  -0.021  -0.015  -0.011
 -0.008  -0.003   0.001   0.010   0.015   0.017   0.017   0.019
  0.026   0.033   0.034   0.038   0.039   0.048   0.056   0.060
  0.061   0.068   0.072   0.081   0.081   0.088   0.099   0.104
  0.105   0.116   0.133   0.148   0.149   0.155   0.155   0.158
  0.172   0.177   0.180   0.202   0.206   0.231   0.238   0.243
  0.275   0.287   0.312   0.338   0.381   0.391   0.403   0.403
  0.419   0.432   0.460   0.486   0.489   0.493   0.500   0.513
  0.516   0.550   0.555   0.558   0.562   0.575   0.597   0.611
  0.621   0.640   0.651   0.670   0.676   0.710   0.761   0.765
  0.778   0.785   0.791   0.815   0.831   0.834   0.835   0.849
  0.859   0.861   0.866   0.911   0.915   0.938   0.945   0.984
  1.001   1.034   1.035   1.045   1.080   1.086   1.165   1.166
  1.180   1.184   1.187   1.198   1.288   1.334   1.354   1.375
  1.409   1.475   1.521   1.536   1.627   1.649   1.714   1.729
  1.754   1.759   1.825   1.827   1.839   1.844   1.906   1.910
  1.933   1.956   2.006   2.021   2.070   2.076   2.115   2.126
  2.197   2.205   2.238   2.275   2.298   2.308   2.329   2.335
  2.373   2.377   2.392   2.397   2.421   2.512   2.521   2.554
  2.574   2.641   2.684   2.772   2.804   2.969   3.039   3.107
  3.109   3.221   3.261   3.538   3.591   3.764   3.848   4.047
  4.111   4.124   4.162   4.224   4.365   4.474   4.564
 --------------------------------------------------------------
 
          Ground-State Mulliken Net Atomic Charges

     Atom                 Charge (a.u.)    Spin (a.u.)
  --------------------------------------------------------
      1 S                    -0.042944      -0.056091
      2 C                     0.105288       0.336742
      3 H                     0.255457      -0.016802
      4 C                    -0.369244      -0.049750
      5 H                     0.174440       0.001227
      6 C                     0.372539       0.171990
      7 H                     0.148006      -0.010117
      8 C                    -0.143794       0.122885
      9 C                    -0.141037       0.122951
     10 C                     0.371277       0.171684
     11 H                     0.147889      -0.010107
     12 C                    -0.369645      -0.049635
     13 H                     0.174445       0.001227
     14 C                     0.105080       0.336511
     15 H                     0.255411      -0.016801
     16 S                    -0.043169      -0.055914
  --------------------------------------------------------
  Sum of atomic charges =     1.000000
  Sum of spin   charges =     1.000000

 -----------------------------------------------------------------
                    Cartesian Multipole Moments
 -----------------------------------------------------------------
    Charge (ESU x 10^10)
                 4.8032
    Dipole Moment (Debye)
         X      -3.2270      Y       0.1636      Z     -10.2584
       Tot      10.7553
    Quadrupole Moments (Debye-Ang)
        XX     -29.5657     XY      -1.6319     YY     -73.0209
        XZ      20.4733     YZ       1.1254     ZZ     -26.7270
    Octopole Moments (Debye-Ang^2)
       XXX      85.3591    XXY       2.2779    XYY      61.0985
       YYY     -16.9428    XXZ      24.1461    XYZ       1.9536
       YYZ     132.2401    XZZ     -15.9525    YZZ     -13.4365
       ZZZ     202.4312
    Hexadecapole Moments (Debye-Ang^3)
      XXXX   -1304.8114   XXXY       4.8100   XXYY    -360.7100
      XYYY      46.7291   YYYY    -100.9488   XXXZ    -271.2789
      XXYZ      -8.0506   XYYZ    -218.9428   YYYZ      14.4803
      XXZZ    -336.2595   XYZZ      20.1097   YYZZ    -415.3204
      XZZZ    -273.3823   YZZZ      61.3596   ZZZZ   -1463.4868
 -----------------------------------------------------------------
 Calculating analytic gradient of the SCF energy
 Gradient of SCF Energy
            1           2           3           4           5           6
    1  -0.0091425   0.0028204  -0.0009330   0.0014299  -0.0001519  -0.0076491
    2  -0.0004468  -0.0004890   0.0004631  -0.0000426  -0.0001718   0.0007798
    3   0.0033891  -0.0062947   0.0001578   0.0049771  -0.0015766  -0.0016888
            7           8           9          10          11          12
    1   0.0010984   0.0146697  -0.0103374   0.0055255  -0.0001805  -0.0049514
    2   0.0002420  -0.0001182  -0.0009561  -0.0002360  -0.0004549   0.0008698
    3  -0.0005114   0.0027721  -0.0108564   0.0056560  -0.0011758   0.0013207
           13          14          15          16
    1   0.0014330   0.0036501   0.0003275   0.0023912
    2  -0.0001518  -0.0011298  -0.0003288   0.0021712
    3  -0.0007293  -0.0056794   0.0009390   0.0093006
 Max gradient component =       1.467E-02
 RMS gradient           =       4.388E-03
 Gradient time:  CPU 1.98 s  wall 1.92 s
 Geometry Optimization Parameters
   NAtoms,    NIC,     NZ,  NCons,   NDum,   NFix, NCnnct, MaxDiis
       16     111       0       1       0       0       0       0

 Cartesian Hessian Update
 Hessian Updated using BFGS Update


** CONSTRAINED OPTIMIZATION IN DELOCALIZED INTERNAL COORDINATES **
   Searching for a Minimum

   Optimization Cycle:   2

                       Coordinates (Angstroms)
     ATOM                X               Y               Z
      1  S        -0.0181452124    0.0734148712    0.0544743738
      2  C         1.7072518552    0.0311815323   -0.0283351860
      3  H         2.2754036546    0.0430806844    0.8937216590
      4  C         2.2035651664   -0.0163288014   -1.3267621059
      5  H         3.2593511614   -0.0449311229   -1.5688098042
      6  C         1.1852511114   -0.0162215810   -2.2837784174
      7  H         1.3658960969   -0.0306957340   -3.3525480745
      8  C        -0.0984227581    0.0328697118   -1.7082116533
      9  C        -1.3375393247    0.0574810234   -2.3959466042
     10  C        -1.5428069149   -0.1573758812   -3.7717738200
     11  H        -0.7465050292   -0.3828902541   -4.4719538347
     12  C        -2.8903442327   -0.0762927314   -4.1332030645
     13  H        -3.2536814377   -0.2172545935   -5.1442651008
     14  C        -3.7124138924    0.1993552998   -3.0457373944
     15  H        -4.7896776437    0.3123421880   -3.0466974436
     16  S        -2.8575047102    0.3699489184   -1.5539369393
   Point Group: c1    Number of degrees of freedom:    42


   Energy is  -1104.569946668

              Constraints and their Current Values
                                        Value     Constraint
   Dihedral:        6   8   9  10       10.000       10.000
 Hessian Updated using BFGS Update

 41 Hessian modes will be used to form the next step
  Hessian Eigenvalues:
     0.044678    0.045000    0.045000    0.045000    0.045000    0.045000
     0.045002    0.045002    0.045004    0.045011    0.045012    0.045017
     0.159372    0.159947    0.159992    0.159993    0.160000    0.160961
     0.220026    0.221283    0.228957    0.237837    0.250000    0.277626
     0.294368    0.295558    0.306164    0.312568    0.354476    0.354806
     0.355114    0.355129    0.358184    0.358307    0.380951    0.404881
     0.425366    0.442721    0.463582    0.489916    0.497938

 Minimum Search - Taking Simple RFO Step
 Searching for Lamda that Minimizes Along All modes
 Value Taken    Lamda =  -0.00152149
 Step Taken.  Stepsize is  0.083573

                             Maximum     Tolerance    Cnvgd?
         Gradient           0.010046      0.000300      NO
         Displacement       0.036728      0.001200      NO
         Energy change     -0.006017      0.000001      NO


 New Cartesian Coordinates Obtained by Inverse Iteration

 Displacement from previous Coordinates is:  0.194497
 ----------------------------------------------------------------
             Standard Nuclear Orientation (Angstroms)
    I     Atom           X                Y                Z
 ----------------------------------------------------------------
    1      S       0.0132424047     0.0828917501     0.0720028355
    2      C       1.7303747172     0.0324640258    -0.0239383117
    3      H       2.3155819735     0.0399648272     0.8883167606
    4      C       2.2055880731    -0.0175545062    -1.3348237973
    5      H       3.2594831802    -0.0490622756    -1.5830171306
    6      C       1.1770061125    -0.0189914476    -2.2752404132
    7      H       1.3422636161    -0.0387231127    -3.3453536637
    8      C      -0.1131333238     0.0327776688    -1.6898817112
    9      C      -1.3450528038     0.0615842790    -2.3739717639
   10      C      -1.5453631965    -0.1528081028    -3.7607497130
   11      H      -0.7389698793    -0.3718534393    -4.4496252738
   12      C      -2.8844942704    -0.0763194211    -4.1392825057
   13      H      -3.2412959460    -0.2143864642    -5.1526580798
   14      C      -3.7286169319     0.1969603672    -3.0626327260
   15      H      -4.8062858108     0.3113129871    -3.0839085285
   16      S      -2.8906500249     0.3594263942    -1.5689993877
 ----------------------------------------------------------------
 Nuclear Repulsion Energy =   631.8922601539 hartrees
 There are       43 alpha and       42 beta electrons
 Applying Cartesian multipole field
    Component          Value
    ---------          -----
     (2,0,0)        1.00000E-11
     (0,2,0)        2.00000E-11
     (0,0,2)       -3.00000E-12
 Nucleus-field energy     =     0.0000000097 hartrees
 Requested basis set is 6-31++G(d,p)
 There are 76 shells and 234 basis functions
 A cutoff of  1.0D-12 yielded   2531 shell pairs
 There are     24885 function pairs

 Q-Chem warning in module /project/projectdirs/jcesr/qchem/qc44/cnl_qc441/compile/cori/qc_src/libqints/qchem/aobasis.C, line 68:

 Using reconstructed effective core potential

 Smallest overlap matrix eigenvalue = 5.99E-07
 Linear dependence detected in AO basis
 Number of orthogonalized atomic orbitals = 233
 Maximum deviation from orthogonality = 1.198E-10
 Guess MOs from SCF MO coefficient file
 Reading MOs from coefficient file
 Reading MOs from coefficient file
 An unrestricted hybrid HF-DFT SCF calculation will be
 performed using Pulay DIIS extrapolation
 Exchange:     0.2000 Hartree-Fock + 0.0800 Slater + 0.7200 B88
 Correlation:  0.1900 VWN1RPA + 0.8100 LYP
 Using SG-1 standard quadrature grid
 SCF converges when DIIS error is below 1.0E-08
 Geometry optimization detected.  Setting ReadMinima to 0
 Setting SaveMinima to 0
 ---------------------------------------
  Cycle       Energy         DIIS Error
 ---------------------------------------
    1   -1104.5421599248      9.34E-04
    2   -1104.5705415391      1.68E-04
    3   -1104.5698476453      3.35E-04
    4   -1104.5707735936      4.60E-05
    5   -1104.5707879802      1.25E-05
    6   -1104.5707890014      5.05E-06
    7   -1104.5707892365      1.56E-06
    8   -1104.5707892639      6.23E-07
    9   -1104.5707892691      1.41E-07
   10   -1104.5707892731      9.90E-08
   11   -1104.5707892752      7.13E-08
   12   -1104.5707892758      3.77E-08
   13   -1104.5707892765      1.04E-08
   14   -1104.5707892764      4.41E-09 Convergence criterion met
 ---------------------------------------
 <S^2> = 0.7688
 SCF time:  CPU 9.71 s  wall 9.76 s
 SCF   energy in the final basis set = -1104.5707892764
 Total energy in the final basis set = -1104.5707892764
 
 --------------------------------------------------------------
 
                    Orbital Energies (a.u.)
 --------------------------------------------------------------
 
 Alpha MOs
 -- Occupied --
-89.098 -89.098 -10.432 -10.432 -10.418 -10.418 -10.393 -10.393
-10.379 -10.379  -8.157  -8.157  -6.121  -6.121  -6.118  -6.117
 -6.114  -6.114  -1.085  -1.060  -0.958  -0.933  -0.920  -0.880
 -0.789  -0.757  -0.726  -0.712  -0.703  -0.648  -0.595  -0.593
 -0.591  -0.586  -0.577  -0.555  -0.550  -0.538  -0.520  -0.472
 -0.442  -0.435  -0.392
 -- Virtual --
 -0.249  -0.182  -0.171  -0.143  -0.127  -0.125  -0.113  -0.106
 -0.101  -0.097  -0.092  -0.081  -0.075  -0.070  -0.067  -0.059
 -0.052  -0.047  -0.040  -0.028  -0.021  -0.018  -0.011  -0.008
 -0.005  -0.000   0.009   0.014   0.016   0.016   0.018   0.025
  0.031   0.032   0.036   0.037   0.047   0.056   0.059   0.060
  0.067   0.072   0.080   0.080   0.086   0.098   0.103   0.105
  0.115   0.132   0.147   0.149   0.151   0.153   0.158   0.170
  0.176   0.179   0.202   0.204   0.231   0.236   0.242   0.274
  0.281   0.310   0.341   0.380   0.384   0.400   0.402   0.420
  0.435   0.459   0.477   0.480   0.484   0.493   0.510   0.516
  0.540   0.554   0.557   0.559   0.571   0.588   0.609   0.618
  0.636   0.642   0.661   0.668   0.708   0.758   0.764   0.775
  0.783   0.790   0.813   0.830   0.832   0.836   0.855   0.855
  0.862   0.863   0.911   0.915   0.937   0.943   0.979   0.995
  1.027   1.031   1.039   1.074   1.082   1.163   1.165   1.173
  1.175   1.186   1.188   1.282   1.325   1.351   1.365   1.400
  1.469   1.510   1.524   1.615   1.648   1.710   1.727   1.754
  1.758   1.815   1.822   1.830   1.831   1.896   1.903   1.920
  1.945   1.993   2.013   2.053   2.073   2.114   2.121   2.191
  2.200   2.234   2.269   2.295   2.305   2.327   2.328   2.364
  2.374   2.383   2.394   2.417   2.511   2.516   2.546   2.568
  2.637   2.682   2.769   2.798   2.968   3.039   3.109   3.110
  3.219   3.255   3.535   3.586   3.765   3.846   4.043   4.103
  4.119   4.159   4.217   4.353   4.468   4.555
 
 Beta MOs
 -- Occupied --
-89.098 -89.098 -10.430 -10.430 -10.414 -10.414 -10.391 -10.391
-10.380 -10.379  -8.157  -8.157  -6.122  -6.122  -6.118  -6.118
 -6.115  -6.115  -1.080  -1.055  -0.952  -0.931  -0.918  -0.870
 -0.784  -0.754  -0.721  -0.708  -0.701  -0.646  -0.593  -0.588
 -0.584  -0.579  -0.574  -0.548  -0.538  -0.537  -0.519  -0.445
 -0.439  -0.431
 -- Virtual --
 -0.326  -0.227  -0.179  -0.156  -0.132  -0.126  -0.122  -0.111
 -0.106  -0.100  -0.092  -0.083  -0.080  -0.074  -0.070  -0.066
 -0.057  -0.049  -0.046  -0.039  -0.027  -0.021  -0.015  -0.010
 -0.008  -0.005   0.001   0.010   0.015   0.017   0.017   0.019
  0.026   0.032   0.033   0.038   0.039   0.048   0.056   0.060
  0.061   0.069   0.073   0.081   0.081   0.087   0.100   0.103
  0.106   0.115   0.133   0.149   0.149   0.153   0.154   0.159
  0.171   0.178   0.181   0.204   0.205   0.232   0.238   0.244
  0.277   0.282   0.311   0.340   0.380   0.387   0.402   0.403
  0.423   0.436   0.459   0.486   0.490   0.493   0.498   0.511
  0.518   0.549   0.556   0.558   0.561   0.573   0.598   0.610
  0.620   0.638   0.648   0.669   0.673   0.709   0.760   0.766
  0.780   0.786   0.792   0.817   0.831   0.833   0.837   0.856
  0.857   0.863   0.864   0.913   0.917   0.938   0.944   0.983
  1.000   1.031   1.035   1.045   1.081   1.084   1.168   1.169
  1.179   1.182   1.188   1.198   1.286   1.330   1.356   1.374
  1.408   1.474   1.524   1.537   1.623   1.650   1.713   1.728
  1.756   1.760   1.821   1.827   1.835   1.836   1.900   1.907
  1.928   1.955   2.007   2.021   2.065   2.079   2.117   2.125
  2.195   2.203   2.239   2.272   2.301   2.306   2.330   2.334
  2.370   2.377   2.389   2.398   2.423   2.512   2.520   2.551
  2.571   2.642   2.685   2.772   2.800   2.969   3.040   3.109
  3.110   3.221   3.257   3.536   3.587   3.766   3.846   4.049
  4.110   4.122   4.161   4.225   4.360   4.471   4.559
 --------------------------------------------------------------
 
          Ground-State Mulliken Net Atomic Charges

     Atom                 Charge (a.u.)    Spin (a.u.)
  --------------------------------------------------------
      1 S                    -0.024595      -0.056430
      2 C                     0.104344       0.338640
      3 H                     0.256773      -0.017051
      4 C                    -0.378354      -0.050883
      5 H                     0.174175       0.001398
      6 C                     0.352006       0.168755
      7 H                     0.145131      -0.010311
      8 C                    -0.129124       0.125980
      9 C                    -0.127092       0.126277
     10 C                     0.348636       0.168118
     11 H                     0.144868      -0.010294
     12 C                    -0.377833      -0.050563
     13 H                     0.174201       0.001393
     14 C                     0.104023       0.338169
     15 H                     0.256770      -0.017041
     16 S                    -0.023928      -0.056157
  --------------------------------------------------------
  Sum of atomic charges =     1.000000
  Sum of spin   charges =     1.000000

 -----------------------------------------------------------------
                    Cartesian Multipole Moments
 -----------------------------------------------------------------
    Charge (ESU x 10^10)
                 4.8032
    Dipole Moment (Debye)
         X      -3.2442      Y       0.1683      Z     -10.2272
       Tot      10.7308
    Quadrupole Moments (Debye-Ang)
        XX     -29.0977     XY      -1.6561     YY     -73.0414
        XZ      20.9310     YZ       1.0586     ZZ     -26.9604
    Octopole Moments (Debye-Ang^2)
       XXX      83.9342    XXY       2.2705    XYY      61.2102
       YYY     -16.9252    XXZ      22.5574    XYZ       2.2207
       YYZ     132.1853    XZZ     -17.1291    YZZ     -13.0465
       ZZZ     203.2257
    Hexadecapole Moments (Debye-Ang^3)
      XXXX   -1310.8370   XXXY       3.7055   XXYY    -364.1907
      XYYY      46.2014   YYYY    -100.4028   XXXZ    -265.5013
      XXYZ      -8.9705   XYYZ    -220.9476   YYYZ      14.2102
      XXZZ    -333.2576   XYZZ      18.6841   YYZZ    -415.8486
      XZZZ    -274.7843   YZZZ      59.2284   ZZZZ   -1471.7931
 -----------------------------------------------------------------
 Calculating analytic gradient of the SCF energy
 Gradient of SCF Energy
            1           2           3           4           5           6
    1  -0.0018257   0.0016164  -0.0000608   0.0006356  -0.0001628  -0.0016342
    2  -0.0003237  -0.0004342   0.0002349   0.0001690  -0.0001054   0.0007007
    3   0.0011246  -0.0006529   0.0003567   0.0009233  -0.0004132  -0.0010896
            7           8           9          10          11          12
    1   0.0004812   0.0009171  -0.0001393   0.0017733  -0.0004109  -0.0011755
    2   0.0001916  -0.0007487   0.0005603  -0.0007615  -0.0002081  -0.0000396
    3   0.0001351  -0.0003733  -0.0011633   0.0009923  -0.0003064  -0.0000054
           13          14          15          16
    1   0.0004548  -0.0003113  -0.0002904   0.0001325
    2   0.0000317   0.0000967  -0.0001519   0.0007881
    3  -0.0001053  -0.0017850   0.0002797   0.0020827
 Max gradient component =       2.083E-03
 RMS gradient           =       8.234E-04
 Gradient time:  CPU 1.91 s  wall 1.92 s
 Geometry Optimization Parameters
   NAtoms,    NIC,     NZ,  NCons,   NDum,   NFix, NCnnct, MaxDiis
       16     111       0       1       0       0       0       0

 Cartesian Hessian Update
 Hessian Updated using BFGS Update


** CONSTRAINED OPTIMIZATION IN DELOCALIZED INTERNAL COORDINATES **
   Searching for a Minimum

   Optimization Cycle:   3

                       Coordinates (Angstroms)
     ATOM                X               Y               Z
      1  S         0.0132424047    0.0828917501    0.0720028355
      2  C         1.7303747172    0.0324640258   -0.0239383117
      3  H         2.3155819735    0.0399648272    0.8883167606
      4  C         2.2055880731   -0.0175545062   -1.3348237973
      5  H         3.2594831802   -0.0490622756   -1.5830171306
      6  C         1.1770061125   -0.0189914476   -2.2752404132
      7  H         1.3422636161   -0.0387231127   -3.3453536637
      8  C        -0.1131333238    0.0327776688   -1.6898817112
      9  C        -1.3450528038    0.0615842790   -2.3739717639
     10  C        -1.5453631965   -0.1528081028   -3.7607497130
     11  H        -0.7389698793   -0.3718534393   -4.4496252738
     12  C        -2.8844942704   -0.0763194211   -4.1392825057
     13  H        -3.2412959460   -0.2143864642   -5.1526580798
     14  C        -3.7286169319    0.1969603672   -3.0626327260
     15  H        -4.8062858108    0.3113129871   -3.0839085285
     16  S        -2.8906500249    0.3594263942   -1.5689993877
   Point Group: c1    Number of degrees of freedom:    42


   Energy is  -1104.570789276

              Constraints and their Current Values
                                        Value     Constraint
   Dihedral:        6   8   9  10       10.000       10.000
 Hessian Updated using BFGS Update

 41 Hessian modes will be used to form the next step
  Hessian Eigenvalues:
     0.042520    0.045000    0.045000    0.045000    0.045000    0.045001
     0.045002    0.045002    0.045004    0.045011    0.045012    0.045124
     0.152340    0.159947    0.159992    0.160000    0.160004    0.160092
     0.218436    0.221283    0.236328    0.237855    0.250000    0.264857
     0.294250    0.294836    0.305367    0.312568    0.354698    0.354831
     0.355128    0.355136    0.358266    0.358520    0.379428    0.404880
     0.430427    0.445860    0.463583    0.489167    0.497940

 Minimum Search - Taking Simple RFO Step
 Searching for Lamda that Minimizes Along All modes
 Value Taken    Lamda =  -0.00008465
 Step Taken.  Stepsize is  0.032320

                             Maximum     Tolerance    Cnvgd?
         Gradient           0.001885      0.000300      NO
         Displacement       0.020549      0.001200      NO
         Energy change     -0.000843      0.000001      NO


 New Cartesian Coordinates Obtained by Inverse Iteration

 Displacement from previous Coordinates is:  0.046772
 ----------------------------------------------------------------
             Standard Nuclear Orientation (Angstroms)
    I     Atom           X                Y                Z
 ----------------------------------------------------------------
    1      S       0.0151262521     0.0899710165     0.0692332178
    2      C       1.7289098059     0.0369145870    -0.0238412442
    3      H       2.3144444660     0.0451001239     0.8877351508
    4      C       2.2060766110    -0.0195606521    -1.3342290517
    5      H       3.2611648706    -0.0529614946    -1.5774106665
    6      C       1.1794762575    -0.0237495638    -2.2744751564
    7      H       1.3422449292    -0.0490211638    -3.3449151152
    8      C      -0.1130540345     0.0302542985    -1.6909566439
    9      C      -1.3439332401     0.0630491174    -2.3749690992
   10      C      -1.5468580659    -0.1486081876    -3.7633548196
   11      H      -0.7381511198    -0.3621618711    -4.4513369619
   12      C      -2.8849967773    -0.0740380618    -4.1398701351
   13      H      -3.2465234131    -0.2089219675    -5.1520702004
   14      C      -3.7283370815     0.1931797029    -3.0605280478
   15      H      -4.8056383458     0.3072727496    -3.0822772497
   16      S      -2.8902732244     0.3509648966    -1.5704973869
 ----------------------------------------------------------------
 Nuclear Repulsion Energy =   632.1544165087 hartrees
 There are       43 alpha and       42 beta electrons
 Applying Cartesian multipole field
    Component          Value
    ---------          -----
     (2,0,0)        1.00000E-11
     (0,2,0)        2.00000E-11
     (0,0,2)       -3.00000E-12
 Nucleus-field energy     =     0.0000000097 hartrees
 Requested basis set is 6-31++G(d,p)
 There are 76 shells and 234 basis functions
 A cutoff of  1.0D-12 yielded   2531 shell pairs
 There are     24885 function pairs

 Q-Chem warning in module /project/projectdirs/jcesr/qchem/qc44/cnl_qc441/compile/cori/qc_src/libqints/qchem/aobasis.C, line 68:

 Using reconstructed effective core potential

 Smallest overlap matrix eigenvalue = 6.23E-07
 Linear dependence detected in AO basis
 Number of orthogonalized atomic orbitals = 233
 Maximum deviation from orthogonality = 1.001E-10
 Guess MOs from SCF MO coefficient file
 Reading MOs from coefficient file
 Reading MOs from coefficient file
 An unrestricted hybrid HF-DFT SCF calculation will be
 performed using Pulay DIIS extrapolation
 Exchange:     0.2000 Hartree-Fock + 0.0800 Slater + 0.7200 B88
 Correlation:  0.1900 VWN1RPA + 0.8100 LYP
 Using SG-1 standard quadrature grid
 SCF converges when DIIS error is below 1.0E-08
 Geometry optimization detected.  Setting ReadMinima to 0
 Setting SaveMinima to 0
 ---------------------------------------
  Cycle       Energy         DIIS Error
 ---------------------------------------
    1   -1104.5746191224      2.70E-04
    2   -1104.5708368999      2.77E-05
    3   -1104.5708169917      5.77E-05
    4   -1104.5708438383      6.77E-06
    5   -1104.5708441678      2.28E-06
    6   -1104.5708441998      1.27E-06
    7   -1104.5708442154      3.63E-07
    8   -1104.5708442183      1.04E-07
    9   -1104.5708442184      6.10E-08
   10   -1104.5708442190      2.59E-08
   11   -1104.5708442189      1.26E-08
   12   -1104.5708442192      8.29E-09 Convergence criterion met
 ---------------------------------------
 <S^2> = 0.7687
 SCF time:  CPU 8.12 s  wall 7.66 s
 SCF   energy in the final basis set = -1104.5708442192
 Total energy in the final basis set = -1104.5708442192
 
 --------------------------------------------------------------
 
                    Orbital Energies (a.u.)
 --------------------------------------------------------------
 
 Alpha MOs
 -- Occupied --
-89.098 -89.098 -10.432 -10.432 -10.418 -10.418 -10.393 -10.393
-10.379 -10.379  -8.157  -8.157  -6.122  -6.121  -6.118  -6.118
 -6.114  -6.114  -1.086  -1.061  -0.959  -0.934  -0.921  -0.880
 -0.789  -0.758  -0.726  -0.712  -0.703  -0.649  -0.595  -0.593
 -0.591  -0.587  -0.577  -0.555  -0.550  -0.538  -0.520  -0.472
 -0.442  -0.436  -0.391
 -- Virtual --
 -0.249  -0.181  -0.171  -0.143  -0.127  -0.124  -0.113  -0.106
 -0.101  -0.097  -0.092  -0.080  -0.075  -0.071  -0.067  -0.058
 -0.052  -0.047  -0.040  -0.028  -0.021  -0.018  -0.011  -0.008
 -0.005  -0.000   0.009   0.015   0.016   0.016   0.019   0.025
  0.031   0.032   0.036   0.037   0.047   0.055   0.059   0.060
  0.068   0.072   0.080   0.080   0.086   0.098   0.103   0.105
  0.114   0.132   0.148   0.149   0.151   0.153   0.158   0.171
  0.177   0.179   0.204   0.204   0.231   0.237   0.243   0.275
  0.280   0.310   0.341   0.380   0.384   0.401   0.402   0.422
  0.436   0.458   0.477   0.480   0.483   0.493   0.510   0.518
  0.539   0.554   0.557   0.559   0.571   0.588   0.609   0.618
  0.636   0.641   0.661   0.667   0.708   0.758   0.764   0.775
  0.785   0.790   0.813   0.830   0.833   0.837   0.855   0.856
  0.863   0.863   0.911   0.915   0.938   0.943   0.979   0.996
  1.027   1.031   1.039   1.074   1.082   1.164   1.165   1.173
  1.174   1.186   1.189   1.283   1.325   1.352   1.365   1.402
  1.469   1.511   1.525   1.614   1.648   1.711   1.727   1.756
  1.759   1.816   1.823   1.830   1.830   1.895   1.903   1.920
  1.944   1.995   2.014   2.054   2.074   2.114   2.121   2.191
  2.201   2.234   2.269   2.297   2.305   2.327   2.328   2.364
  2.375   2.383   2.395   2.418   2.511   2.516   2.546   2.568
  2.637   2.683   2.771   2.797   2.968   3.039   3.109   3.110
  3.219   3.255   3.535   3.586   3.766   3.847   4.043   4.103
  4.119   4.160   4.218   4.353   4.468   4.555
 
 Beta MOs
 -- Occupied --
-89.098 -89.098 -10.430 -10.430 -10.414 -10.414 -10.391 -10.391
-10.379 -10.379  -8.157  -8.157  -6.122  -6.122  -6.118  -6.118
 -6.115  -6.115  -1.080  -1.055  -0.952  -0.931  -0.918  -0.870
 -0.784  -0.754  -0.721  -0.708  -0.701  -0.646  -0.594  -0.588
 -0.585  -0.579  -0.574  -0.548  -0.539  -0.537  -0.518  -0.445
 -0.439  -0.431
 -- Virtual --
 -0.325  -0.227  -0.178  -0.155  -0.132  -0.126  -0.122  -0.111
 -0.106  -0.100  -0.092  -0.083  -0.080  -0.074  -0.070  -0.066
 -0.057  -0.050  -0.047  -0.039  -0.027  -0.021  -0.015  -0.010
 -0.008  -0.005   0.001   0.010   0.016   0.017   0.017   0.019
  0.026   0.032   0.034   0.038   0.039   0.048   0.056   0.060
  0.061   0.069   0.072   0.081   0.081   0.087   0.100   0.103
  0.106   0.115   0.133   0.149   0.149   0.152   0.153   0.160
  0.172   0.178   0.181   0.205   0.205   0.232   0.239   0.245
  0.277   0.281   0.311   0.340   0.380   0.387   0.402   0.403
  0.424   0.437   0.459   0.485   0.490   0.493   0.498   0.510
  0.521   0.548   0.556   0.558   0.561   0.572   0.598   0.610
  0.620   0.638   0.647   0.669   0.671   0.709   0.760   0.766
  0.780   0.787   0.792   0.817   0.831   0.834   0.838   0.857
  0.858   0.864   0.865   0.913   0.918   0.939   0.944   0.984
  1.001   1.031   1.035   1.045   1.082   1.084   1.168   1.169
  1.178   1.183   1.188   1.198   1.286   1.329   1.357   1.375
  1.410   1.473   1.525   1.538   1.622   1.649   1.715   1.729
  1.758   1.762   1.821   1.828   1.835   1.836   1.900   1.908
  1.928   1.954   2.008   2.021   2.066   2.080   2.117   2.125
  2.195   2.204   2.239   2.272   2.303   2.306   2.330   2.335
  2.369   2.377   2.388   2.399   2.424   2.512   2.520   2.551
  2.571   2.642   2.685   2.774   2.800   2.969   3.041   3.109
  3.111   3.221   3.257   3.537   3.588   3.766   3.847   4.049
  4.110   4.123   4.163   4.225   4.361   4.472   4.559
 --------------------------------------------------------------
 
          Ground-State Mulliken Net Atomic Charges

     Atom                 Charge (a.u.)    Spin (a.u.)
  --------------------------------------------------------
      1 S                    -0.023947      -0.056223
      2 C                     0.102377       0.338165
      3 H                     0.256979      -0.017085
      4 C                    -0.377284      -0.049989
      5 H                     0.174372       0.001387
      6 C                     0.346807       0.166990
      7 H                     0.144578      -0.010317
      8 C                    -0.123684       0.127154
      9 C                    -0.121627       0.127535
     10 C                     0.343492       0.166282
     11 H                     0.144285      -0.010298
     12 C                    -0.376526      -0.049612
     13 H                     0.174402       0.001381
     14 C                     0.102114       0.337641
     15 H                     0.257003      -0.017072
     16 S                    -0.023342      -0.055939
  --------------------------------------------------------
  Sum of atomic charges =     1.000000
  Sum of spin   charges =     1.000000

 -----------------------------------------------------------------
                    Cartesian Multipole Moments
 -----------------------------------------------------------------
    Charge (ESU x 10^10)
                 4.8032
    Dipole Moment (Debye)
         X      -3.2506      Y       0.1700      Z     -10.2159
       Tot      10.7219
    Quadrupole Moments (Debye-Ang)
        XX     -29.0601     XY      -1.6388     YY     -73.0324
        XZ      20.9717     YZ       1.0585     ZZ     -27.0292
    Octopole Moments (Debye-Ang^2)
       XXX      83.7174    XXY       2.1240    XYY      61.1946
       YYY     -16.8521    XXZ      22.5302    XYZ       2.2964
       YYZ     132.2784    XZZ     -17.3005    YZZ     -12.8766
       ZZZ     203.6671
    Hexadecapole Moments (Debye-Ang^3)
      XXXX   -1310.0551   XXXY       3.4844   XXYY    -364.1637
      XYYY      45.3435   YYYY     -99.8591   XXXZ    -264.7992
      XXYZ      -8.8542   XYYZ    -221.0387   YYYZ      13.6852
      XXZZ    -332.9739   XYZZ      17.9815   YYZZ    -416.0620
      XZZZ    -274.4759   YZZZ      57.8469   ZZZZ   -1473.7348
 -----------------------------------------------------------------
 Calculating analytic gradient of the SCF energy
 Gradient of SCF Energy
            1           2           3           4           5           6
    1  -0.0001170   0.0004959  -0.0000854  -0.0001640  -0.0000095   0.0000446
    2  -0.0002067  -0.0002491   0.0001121   0.0001108  -0.0000667   0.0008184
    3   0.0001129  -0.0001802   0.0000413   0.0001133  -0.0000832  -0.0000138
            7           8           9          10          11          12
    1   0.0001517  -0.0006292   0.0006288  -0.0001061  -0.0001602  -0.0000366
    2   0.0001786  -0.0012918   0.0013097  -0.0008337  -0.0001788  -0.0000770
    3   0.0000554  -0.0001616   0.0001586   0.0001497  -0.0000696   0.0002370
           13          14          15          16
    1   0.0000754  -0.0000864  -0.0000026   0.0000006
    2   0.0000455   0.0001628  -0.0000861   0.0002522
    3  -0.0000397  -0.0005710   0.0001228   0.0001281
 Max gradient component =       1.310E-03
 RMS gradient           =       3.758E-04
 Gradient time:  CPU 1.94 s  wall 1.96 s
 Geometry Optimization Parameters
   NAtoms,    NIC,     NZ,  NCons,   NDum,   NFix, NCnnct, MaxDiis
       16     111       0       1       0       0       0       0

 Cartesian Hessian Update
 Hessian Updated using BFGS Update


** CONSTRAINED OPTIMIZATION IN DELOCALIZED INTERNAL COORDINATES **
   Searching for a Minimum

   Optimization Cycle:   4

                       Coordinates (Angstroms)
     ATOM                X               Y               Z
      1  S         0.0151262521    0.0899710165    0.0692332178
      2  C         1.7289098059    0.0369145870   -0.0238412442
      3  H         2.3144444660    0.0451001239    0.8877351508
      4  C         2.2060766110   -0.0195606521   -1.3342290517
      5  H         3.2611648706   -0.0529614946   -1.5774106665
      6  C         1.1794762575   -0.0237495638   -2.2744751564
      7  H         1.3422449292   -0.0490211638   -3.3449151152
      8  C        -0.1130540345    0.0302542985   -1.6909566439
      9  C        -1.3439332401    0.0630491174   -2.3749690992
     10  C        -1.5468580659   -0.1486081876   -3.7633548196
     11  H        -0.7381511198   -0.3621618711   -4.4513369619
     12  C        -2.8849967773   -0.0740380618   -4.1398701351
     13  H        -3.2465234131   -0.2089219675   -5.1520702004
     14  C        -3.7283370815    0.1931797029   -3.0605280478
     15  H        -4.8056383458    0.3072727496   -3.0822772497
     16  S        -2.8902732244    0.3509648966   -1.5704973869
   Point Group: c1    Number of degrees of freedom:    42


   Energy is  -1104.570844219

              Constraints and their Current Values
                                        Value     Constraint
   Dihedral:        6   8   9  10       10.000       10.000
 Hessian Updated using BFGS Update

 41 Hessian modes will be used to form the next step
  Hessian Eigenvalues:
     0.026996    0.045000    0.045000    0.045000    0.045001    0.045002
     0.045002    0.045003    0.045004    0.045011    0.045012    0.045275
     0.149244    0.159811    0.159947    0.159992    0.160000    0.160472
     0.221282    0.222064    0.237839    0.238941    0.249996    0.287565
     0.293104    0.294469    0.305866    0.312567    0.354494    0.354806
     0.355129    0.355206    0.358275    0.359497    0.377380    0.404882
     0.434475    0.445630    0.463587    0.497149    0.498080

 Minimum Search - Taking Simple RFO Step
 Searching for Lamda that Minimizes Along All modes
 Value Taken    Lamda =  -0.00002516
 Step Taken.  Stepsize is  0.028838

                             Maximum     Tolerance    Cnvgd?
         Gradient           0.000602      0.000300      NO
         Displacement       0.023167      0.001200      NO
         Energy change     -0.000055      0.000001      NO


 New Cartesian Coordinates Obtained by Inverse Iteration

 Displacement from previous Coordinates is:  0.049523
 ----------------------------------------------------------------
             Standard Nuclear Orientation (Angstroms)
    I     Atom           X                Y                Z
 ----------------------------------------------------------------
    1      S       0.0147315243     0.0963737079     0.0670618725
    2      C       1.7272207722     0.0416361692    -0.0235611605
    3      H       2.3127242014     0.0516861046     0.8879767084
    4      C       2.2064802985    -0.0220048885    -1.3333194472
    5      H       3.2622311428    -0.0572734135    -1.5732827194
    6      C       1.1811164327    -0.0293504374    -2.2746346024
    7      H       1.3426439245    -0.0608941345    -3.3451660219
    8      C      -0.1121621089     0.0273627501    -1.6923878446
    9      C      -1.3429527714     0.0649407070    -2.3769593901
   10      C      -1.5470024286    -0.1435509504    -3.7659457790
   11      H      -0.7367704689    -0.3510382559    -4.4540940232
   12      C      -2.8856824218    -0.0712943170    -4.1403012082
   13      H      -3.2500694166    -0.2035133522    -5.1518120323
   14      C      -3.7281787394     0.1890272395    -3.0580276504
   15      H      -4.8056080983     0.3016767848    -3.0793829811
   16      S      -2.8890439524     0.3438998162    -1.5699271307
 ----------------------------------------------------------------
 Nuclear Repulsion Energy =   632.2868334399 hartrees
 There are       43 alpha and       42 beta electrons
 Applying Cartesian multipole field
    Component          Value
    ---------          -----
     (2,0,0)        1.00000E-11
     (0,2,0)        2.00000E-11
     (0,0,2)       -3.00000E-12
 Nucleus-field energy     =     0.0000000097 hartrees
 Requested basis set is 6-31++G(d,p)
 There are 76 shells and 234 basis functions
 A cutoff of  1.0D-12 yielded   2531 shell pairs
 There are     24885 function pairs

 Q-Chem warning in module /project/projectdirs/jcesr/qchem/qc44/cnl_qc441/compile/cori/qc_src/libqints/qchem/aobasis.C, line 68:

 Using reconstructed effective core potential

 Smallest overlap matrix eigenvalue = 6.59E-07
 Linear dependence detected in AO basis
 Number of orthogonalized atomic orbitals = 233
 Maximum deviation from orthogonality = 1.005E-10
 Guess MOs from SCF MO coefficient file
 Reading MOs from coefficient file
 Reading MOs from coefficient file
 An unrestricted hybrid HF-DFT SCF calculation will be
 performed using Pulay DIIS extrapolation
 Exchange:     0.2000 Hartree-Fock + 0.0800 Slater + 0.7200 B88
 Correlation:  0.1900 VWN1RPA + 0.8100 LYP
 Using SG-1 standard quadrature grid
 SCF converges when DIIS error is below 1.0E-08
 Geometry optimization detected.  Setting ReadMinima to 0
 Setting SaveMinima to 0
 ---------------------------------------
  Cycle       Energy         DIIS Error
 ---------------------------------------
    1   -1104.5716800556      2.57E-04
    2   -1104.5708515637      3.28E-05
    3   -1104.5708132871      7.69E-05
    4   -1104.5708613948      3.38E-06
    5   -1104.5708614261      2.93E-06
    6   -1104.5708614955      7.40E-07
    7   -1104.5708615016      2.86E-07
    8   -1104.5708615031      6.11E-08
    9   -1104.5708615030      4.35E-08
   10   -1104.5708615037      2.13E-08
   11   -1104.5708615034      1.49E-08
   12   -1104.5708615040      4.07E-09 Convergence criterion met
 ---------------------------------------
 <S^2> = 0.7686
 SCF time:  CPU 8.07 s  wall 7.62 s
 SCF   energy in the final basis set = -1104.5708615040
 Total energy in the final basis set = -1104.5708615040
 
 --------------------------------------------------------------
 
                    Orbital Energies (a.u.)
 --------------------------------------------------------------
 
 Alpha MOs
 -- Occupied --
-89.098 -89.098 -10.432 -10.431 -10.418 -10.418 -10.393 -10.393
-10.379 -10.379  -8.157  -8.157  -6.122  -6.122  -6.118  -6.118
 -6.114  -6.114  -1.086  -1.061  -0.959  -0.934  -0.921  -0.880
 -0.789  -0.758  -0.726  -0.711  -0.703  -0.649  -0.596  -0.593
 -0.591  -0.587  -0.577  -0.555  -0.550  -0.538  -0.519  -0.472
 -0.443  -0.436  -0.391
 -- Virtual --
 -0.249  -0.181  -0.171  -0.143  -0.127  -0.124  -0.112  -0.106
 -0.101  -0.097  -0.092  -0.080  -0.075  -0.071  -0.067  -0.058
 -0.052  -0.048  -0.040  -0.028  -0.022  -0.018  -0.011  -0.008
 -0.005  -0.000   0.009   0.015   0.016   0.016   0.019   0.025
  0.031   0.032   0.036   0.037   0.047   0.055   0.059   0.059
  0.068   0.071   0.079   0.080   0.086   0.098   0.103   0.105
  0.114   0.131   0.148   0.149   0.151   0.152   0.158   0.171
  0.177   0.179   0.204   0.205   0.232   0.237   0.243   0.275
  0.280   0.310   0.341   0.380   0.384   0.401   0.402   0.424
  0.436   0.458   0.476   0.480   0.483   0.493   0.510   0.521
  0.537   0.554   0.557   0.560   0.571   0.588   0.609   0.618
  0.637   0.640   0.661   0.666   0.708   0.758   0.764   0.775
  0.785   0.789   0.813   0.829   0.833   0.837   0.855   0.856
  0.863   0.864   0.911   0.915   0.938   0.944   0.980   0.996
  1.027   1.031   1.039   1.075   1.081   1.164   1.165   1.173
  1.173   1.185   1.190   1.283   1.325   1.352   1.365   1.403
  1.468   1.511   1.525   1.614   1.648   1.712   1.728   1.756
  1.759   1.816   1.824   1.829   1.830   1.895   1.903   1.920
  1.943   1.995   2.014   2.054   2.074   2.113   2.122   2.191
  2.201   2.233   2.269   2.297   2.305   2.327   2.328   2.363
  2.374   2.383   2.395   2.418   2.511   2.516   2.546   2.568
  2.636   2.683   2.771   2.797   2.968   3.039   3.109   3.110
  3.219   3.254   3.536   3.587   3.766   3.847   4.043   4.103
  4.119   4.161   4.218   4.354   4.468   4.555
 
 Beta MOs
 -- Occupied --
-89.098 -89.098 -10.430 -10.430 -10.414 -10.414 -10.391 -10.391
-10.379 -10.379  -8.158  -8.158  -6.122  -6.122  -6.118  -6.118
 -6.115  -6.115  -1.081  -1.055  -0.952  -0.931  -0.919  -0.870
 -0.784  -0.754  -0.721  -0.708  -0.701  -0.646  -0.594  -0.588
 -0.585  -0.579  -0.574  -0.548  -0.539  -0.537  -0.518  -0.445
 -0.439  -0.431
 -- Virtual --
 -0.325  -0.227  -0.178  -0.155  -0.132  -0.126  -0.122  -0.110
 -0.106  -0.100  -0.092  -0.083  -0.079  -0.074  -0.070  -0.066
 -0.056  -0.050  -0.047  -0.039  -0.027  -0.021  -0.015  -0.010
 -0.008  -0.005   0.001   0.010   0.016   0.017   0.017   0.020
  0.026   0.032   0.034   0.038   0.039   0.048   0.056   0.060
  0.061   0.069   0.072   0.081   0.082   0.086   0.100   0.103
  0.107   0.115   0.133   0.149   0.150   0.152   0.152   0.160
  0.172   0.179   0.181   0.205   0.206   0.233   0.239   0.245
  0.278   0.281   0.312   0.340   0.380   0.387   0.403   0.403
  0.426   0.437   0.459   0.485   0.489   0.493   0.497   0.510
  0.523   0.546   0.556   0.558   0.562   0.572   0.598   0.610
  0.619   0.639   0.646   0.668   0.671   0.709   0.760   0.765
  0.780   0.788   0.792   0.817   0.830   0.834   0.838   0.857
  0.858   0.865   0.866   0.913   0.918   0.939   0.945   0.984
  1.001   1.031   1.035   1.044   1.082   1.084   1.168   1.169
  1.177   1.183   1.188   1.199   1.286   1.329   1.357   1.375
  1.411   1.472   1.526   1.539   1.622   1.649   1.715   1.729
  1.758   1.762   1.822   1.829   1.834   1.835   1.900   1.908
  1.928   1.954   2.009   2.021   2.067   2.080   2.117   2.126
  2.195   2.204   2.238   2.272   2.304   2.306   2.330   2.335
  2.369   2.377   2.388   2.399   2.424   2.512   2.520   2.551
  2.571   2.641   2.685   2.774   2.800   2.969   3.041   3.109
  3.110   3.220   3.256   3.537   3.588   3.766   3.847   4.049
  4.110   4.123   4.163   4.225   4.361   4.472   4.559
 --------------------------------------------------------------
 
          Ground-State Mulliken Net Atomic Charges

     Atom                 Charge (a.u.)    Spin (a.u.)
  --------------------------------------------------------
      1 S                    -0.024625      -0.056020
      2 C                     0.100132       0.337677
      3 H                     0.257097      -0.017105
      4 C                    -0.376858      -0.049168
      5 H                     0.174558       0.001376
      6 C                     0.344140       0.165634
      7 H                     0.144059      -0.010325
      8 C                    -0.118585       0.127989
      9 C                    -0.116234       0.128422
     10 C                     0.340916       0.164881
     11 H                     0.143733      -0.010306
     12 C                    -0.375836      -0.048761
     13 H                     0.174594       0.001369
     14 C                     0.099904       0.337157
     15 H                     0.257132      -0.017091
     16 S                    -0.024127      -0.055730
  --------------------------------------------------------
  Sum of atomic charges =     1.000000
  Sum of spin   charges =     1.000000

 -----------------------------------------------------------------
                    Cartesian Multipole Moments
 -----------------------------------------------------------------
    Charge (ESU x 10^10)
                 4.8032
    Dipole Moment (Debye)
         X      -3.2535      Y       0.1707      Z     -10.2111
       Tot      10.7182
    Quadrupole Moments (Debye-Ang)
        XX     -29.0487     XY      -1.6187     YY     -73.0405
        XZ      20.9739     YZ       1.0700     ZZ     -27.0493
    Octopole Moments (Debye-Ang^2)
       XXX      83.5966    XXY       1.9547    XYY      61.2162
       YYY     -16.8136    XXZ      22.5792    XYZ       2.3554
       YYZ     132.3664    XZZ     -17.3251    YZZ     -12.7519
       ZZZ     203.8004
    Hexadecapole Moments (Debye-Ang^3)
      XXXX   -1309.2199   XXXY       3.5628   XXYY    -364.1605
      XYYY      44.6999   YYYY     -99.4392   XXXZ    -264.4500
      XXYZ      -8.5596   XYYZ    -221.0881   YYYZ      13.2563
      XXZZ    -333.0419   XYZZ      17.4330   YYZZ    -416.3038
      XZZZ    -274.2687   YZZZ      56.6838   ZZZZ   -1474.1819
 -----------------------------------------------------------------
 Calculating analytic gradient of the SCF energy
 Gradient of SCF Energy
            1           2           3           4           5           6
    1   0.0003856  -0.0001827  -0.0000168  -0.0001435   0.0000253   0.0004342
    2  -0.0001084  -0.0000501   0.0000221   0.0000186  -0.0000312   0.0009423
    3  -0.0002036   0.0001142  -0.0000342  -0.0001452   0.0000584   0.0001161
            7           8           9          10          11          12
    1  -0.0000702  -0.0005508   0.0003884  -0.0004538   0.0000420   0.0001968
    2   0.0001439  -0.0018570   0.0019071  -0.0009596  -0.0001447  -0.0000441
    3  -0.0000340   0.0001560   0.0001584  -0.0001007   0.0000669   0.0000586
           13          14          15          16
    1  -0.0000714   0.0000165   0.0000331  -0.0000328
    2   0.0000336   0.0001089  -0.0000153   0.0000341
    3   0.0000143   0.0002067   0.0000141  -0.0004459
 Max gradient component =       1.907E-03
 RMS gradient           =       4.672E-04
 Gradient time:  CPU 1.91 s  wall 1.92 s
 Geometry Optimization Parameters
   NAtoms,    NIC,     NZ,  NCons,   NDum,   NFix, NCnnct, MaxDiis
       16     111       0       1       0       0       0       0

 Cartesian Hessian Update
 Hessian Updated using BFGS Update


** CONSTRAINED OPTIMIZATION IN DELOCALIZED INTERNAL COORDINATES **
   Searching for a Minimum

   Optimization Cycle:   5

                       Coordinates (Angstroms)
     ATOM                X               Y               Z
      1  S         0.0147315243    0.0963737079    0.0670618725
      2  C         1.7272207722    0.0416361692   -0.0235611605
      3  H         2.3127242014    0.0516861046    0.8879767084
      4  C         2.2064802985   -0.0220048885   -1.3333194472
      5  H         3.2622311428   -0.0572734135   -1.5732827194
      6  C         1.1811164327   -0.0293504374   -2.2746346024
      7  H         1.3426439245   -0.0608941345   -3.3451660219
      8  C        -0.1121621089    0.0273627501   -1.6923878446
      9  C        -1.3429527714    0.0649407070   -2.3769593901
     10  C        -1.5470024286   -0.1435509504   -3.7659457790
     11  H        -0.7367704689   -0.3510382559   -4.4540940232
     12  C        -2.8856824218   -0.0712943170   -4.1403012082
     13  H        -3.2500694166   -0.2035133522   -5.1518120323
     14  C        -3.7281787394    0.1890272395   -3.0580276504
     15  H        -4.8056080983    0.3016767848   -3.0793829811
     16  S        -2.8890439524    0.3438998162   -1.5699271307
   Point Group: c1    Number of degrees of freedom:    42


   Energy is  -1104.570861504

              Constraints and their Current Values
                                        Value     Constraint
   Dihedral:        6   8   9  10       10.000       10.000
 Hessian Updated using BFGS Update

 40 Hessian modes will be used to form the next step
  Hessian Eigenvalues:
     0.015044    0.044986    0.045000    0.045000    0.045001    0.045002
     0.045003    0.045009    0.045012    0.045023    0.045443    0.158373
     0.159946    0.159990    0.160000    0.160021    0.165419    0.221282
     0.221638    0.236143    0.237842    0.249996    0.284643    0.294438
     0.298313    0.312566    0.331676    0.354792    0.355128    0.355141
     0.355432    0.358276    0.360776    0.383163    0.404887    0.434012
     0.446125    0.463588    0.494086    0.497952

 Minimum Search - Taking Simple RFO Step
 Searching for Lamda that Minimizes Along All modes
 Value Taken    Lamda =  -0.00001039
 Step Taken.  Stepsize is  0.023949

                             Maximum     Tolerance    Cnvgd?
         Gradient           0.000383      0.000300      NO
         Displacement       0.020723      0.001200      NO
         Energy change     -0.000017      0.000001      NO


 New Cartesian Coordinates Obtained by Inverse Iteration

 Displacement from previous Coordinates is:  0.041998
 ----------------------------------------------------------------
             Standard Nuclear Orientation (Angstroms)
    I     Atom           X                Y                Z
 ----------------------------------------------------------------
    1      S       0.0140575987     0.1013793430     0.0662699260
    2      C       1.7264807274     0.0454195373    -0.0235390261
    3      H       2.3121624508     0.0577300199     0.8878841471
    4      C       2.2064464947    -0.0241861406    -1.3328639032
    5      H       3.2623225576    -0.0610524141    -1.5719596038
    6      C       1.1814164358    -0.0343783767    -2.2745835333
    7      H       1.3429024912    -0.0717885404    -3.3449159510
    8      C      -0.1118049646     0.0248999302    -1.6929473213
    9      C      -1.3424416531     0.0669204901    -2.3780021771
   10      C      -1.5466503179    -0.1387418672    -3.7671872107
   11      H      -0.7358498507    -0.3406343993    -4.4562919631
   12      C      -2.8858004074    -0.0689200869    -4.1405130170
   13      H      -3.2507843828    -0.1993149068    -5.1520285630
   14      C      -3.7282440465     0.1855177808    -3.0566276125
   15      H      -4.8059159928     0.2960973344    -3.0777377686
   16      S      -2.8886192502     0.3387358264    -1.5687198326
 ----------------------------------------------------------------
 Nuclear Repulsion Energy =   632.3326524483 hartrees
 There are       43 alpha and       42 beta electrons
 Applying Cartesian multipole field
    Component          Value
    ---------          -----
     (2,0,0)        1.00000E-11
     (0,2,0)        2.00000E-11
     (0,0,2)       -3.00000E-12
 Nucleus-field energy     =     0.0000000097 hartrees
 Requested basis set is 6-31++G(d,p)
 There are 76 shells and 234 basis functions
 A cutoff of  1.0D-12 yielded   2531 shell pairs
 There are     24885 function pairs

 Q-Chem warning in module /project/projectdirs/jcesr/qchem/qc44/cnl_qc441/compile/cori/qc_src/libqints/qchem/aobasis.C, line 68:

 Using reconstructed effective core potential

 Smallest overlap matrix eigenvalue = 6.95E-07
 Linear dependence detected in AO basis
 Number of orthogonalized atomic orbitals = 233
 Maximum deviation from orthogonality = 5.749E-11
 Guess MOs from SCF MO coefficient file
 Reading MOs from coefficient file
 Reading MOs from coefficient file
[...]
    8   -1104.5708725589      2.69E-08
    9   -1104.5708725587      9.54E-09 Convergence criterion met
 ---------------------------------------
 <S^2> = 0.7686
 SCF time:  CPU 6.10 s  wall 5.91 s
 SCF   energy in the final basis set = -1104.5708725587
 Total energy in the final basis set = -1104.5708725587
 
 --------------------------------------------------------------
 
                    Orbital Energies (a.u.)
 --------------------------------------------------------------
 
 Alpha MOs
 -- Occupied --
-89.098 -89.098 -10.432 -10.432 -10.418 -10.418 -10.393 -10.393
-10.379 -10.379  -8.157  -8.157  -6.122  -6.122  -6.118  -6.118
 -6.114  -6.114  -1.086  -1.061  -0.959  -0.934  -0.921  -0.880
 -0.789  -0.758  -0.726  -0.711  -0.703  -0.649  -0.595  -0.593
 -0.591  -0.587  -0.577  -0.555  -0.550  -0.538  -0.520  -0.472
 -0.443  -0.436  -0.391
 -- Virtual --
 -0.249  -0.181  -0.171  -0.143  -0.127  -0.124  -0.112  -0.106
 -0.101  -0.097  -0.092  -0.080  -0.075  -0.071  -0.067  -0.058
 -0.052  -0.048  -0.040  -0.028  -0.022  -0.018  -0.011  -0.008
 -0.005  -0.000   0.009   0.015   0.016   0.016   0.019   0.025
  0.031   0.032   0.036   0.037   0.047   0.055   0.059   0.059
  0.068   0.072   0.079   0.080   0.085   0.098   0.103   0.105
  0.114   0.131   0.148   0.149   0.151   0.151   0.159   0.171
  0.177   0.179   0.204   0.207   0.233   0.237   0.244   0.276
  0.280   0.310   0.341   0.380   0.384   0.401   0.402   0.425
  0.436   0.458   0.476   0.480   0.482   0.493   0.509   0.524
  0.534   0.554   0.557   0.560   0.571   0.588   0.608   0.618
  0.638   0.639   0.661   0.665   0.708   0.758   0.764   0.775
  0.785   0.789   0.813   0.829   0.833   0.837   0.855   0.857
  0.863   0.866   0.911   0.915   0.938   0.944   0.981   0.996
  1.027   1.030   1.039   1.075   1.081   1.164   1.165   1.172
  1.173   1.185   1.191   1.283   1.326   1.352   1.365   1.404
  1.467   1.511   1.525   1.614   1.648   1.712   1.728   1.756
  1.759   1.817   1.825   1.828   1.829   1.895   1.903   1.919
  1.943   1.995   2.013   2.054   2.074   2.113   2.122   2.191
  2.201   2.233   2.268   2.298   2.305   2.327   2.328   2.363
  2.374   2.383   2.395   2.418   2.510   2.516   2.546   2.568
  2.635   2.683   2.771   2.797   2.968   3.039   3.109   3.110
  3.219   3.255   3.535   3.587   3.765   3.847   4.043   4.103
  4.119   4.162   4.218   4.353   4.468   4.555
 
 Beta MOs
 -- Occupied --
-89.098 -89.098 -10.430 -10.430 -10.414 -10.414 -10.391 -10.391
-10.379 -10.379  -8.158  -8.157  -6.122  -6.122  -6.118  -6.118
 -6.115  -6.115  -1.081  -1.055  -0.952  -0.931  -0.919  -0.870
 -0.784  -0.754  -0.721  -0.708  -0.701  -0.646  -0.594  -0.588
 -0.585  -0.579  -0.574  -0.548  -0.539  -0.537  -0.518  -0.445
 -0.439  -0.431
 -- Virtual --
 -0.325  -0.227  -0.178  -0.155  -0.132  -0.126  -0.122  -0.110
 -0.106  -0.100  -0.092  -0.083  -0.079  -0.074  -0.070  -0.066
 -0.056  -0.050  -0.047  -0.039  -0.027  -0.021  -0.015  -0.010
 -0.008  -0.005   0.001   0.010   0.016   0.017   0.017   0.020
  0.026   0.032   0.034   0.038   0.039   0.048   0.056   0.060
  0.061   0.070   0.073   0.081   0.082   0.086   0.100   0.103
  0.107   0.114   0.132   0.149   0.150   0.151   0.153   0.161
  0.172   0.179   0.181   0.205   0.208   0.234   0.239   0.246
  0.278   0.281   0.312   0.341   0.380   0.387   0.403   0.403
  0.427   0.437   0.459   0.484   0.489   0.493   0.497   0.510
  0.526   0.544   0.556   0.558   0.562   0.572   0.598   0.610
  0.619   0.640   0.645   0.669   0.670   0.709   0.760   0.765
  0.780   0.788   0.791   0.817   0.830   0.834   0.838   0.857
  0.859   0.865   0.867   0.913   0.918   0.939   0.945   0.985
  1.001   1.031   1.034   1.045   1.083   1.084   1.168   1.169
  1.176   1.183   1.187   1.200   1.286   1.330   1.357   1.375
  1.412   1.471   1.525   1.538   1.623   1.649   1.715   1.729
  1.758   1.762   1.823   1.830   1.833   1.834   1.900   1.908
  1.928   1.954   2.008   2.020   2.067   2.080   2.116   2.126
  2.195   2.204   2.238   2.272   2.304   2.306   2.329   2.335
  2.369   2.377   2.388   2.398   2.424   2.511   2.520   2.551
  2.571   2.641   2.685   2.774   2.800   2.969   3.041   3.109
  3.110   3.220   3.256   3.537   3.589   3.766   3.847   4.049
  4.110   4.123   4.164   4.225   4.360   4.472   4.559
 --------------------------------------------------------------
 
          Ground-State Mulliken Net Atomic Charges

     Atom                 Charge (a.u.)    Spin (a.u.)
  --------------------------------------------------------
      1 S                    -0.025601      -0.056087
      2 C                     0.096721       0.337327
      3 H                     0.257200      -0.017125
      4 C                    -0.380002      -0.048794
      5 H                     0.174742       0.001400
      6 C                     0.345259       0.164962
      7 H                     0.143328      -0.010393
      8 C                    -0.112090       0.128767
      9 C                    -0.109216       0.129182
     10 C                     0.342287       0.164228
     11 H                     0.142941      -0.010376
     12 C                    -0.378786      -0.048404
     13 H                     0.174784       0.001395
     14 C                     0.096505       0.336832
     15 H                     0.257231      -0.017113
     16 S                    -0.025305      -0.055802
  --------------------------------------------------------
  Sum of atomic charges =     1.000000
  Sum of spin   charges =     1.000000

 -----------------------------------------------------------------
                    Cartesian Multipole Moments
 -----------------------------------------------------------------
    Charge (ESU x 10^10)
                 4.8032
    Dipole Moment (Debye)
         X      -3.2517      Y       0.1702      Z     -10.2142
       Tot      10.7207
    Quadrupole Moments (Debye-Ang)
        XX     -29.0455     XY      -1.5837     YY     -73.0637
        XZ      20.9542     YZ       1.0975     ZZ     -27.0209
    Octopole Moments (Debye-Ang^2)
       XXX      83.5664    XXY       1.6620    XYY      61.3103
       YYY     -16.8201    XXZ      22.6191    XYZ       2.4225
       YYZ     132.4280    XZZ     -17.2528    YZZ     -12.6181
       ZZZ     203.5209
    Hexadecapole Moments (Debye-Ang^3)
      XXXX   -1308.8499   XXXY       4.1964   XXYY    -364.3589
      XYYY      44.1354   YYYY     -98.9840   XXXZ    -264.4129
      XXYZ      -7.8689   XYYZ    -221.2118   YYYZ      12.8499
      XXZZ    -333.3284   XYZZ      16.8512   YYZZ    -416.5094
      XZZZ    -274.1381   YZZZ      55.2915   ZZZZ   -1472.4418
 -----------------------------------------------------------------
 Calculating analytic gradient of the SCF energy
 Gradient of SCF Energy
            1           2           3           4           5           6
    1  -0.0000010  -0.0000339   0.0000208   0.0000171   0.0000016   0.0000362
    2   0.0000173   0.0000409  -0.0000130  -0.0000165   0.0000009   0.0011855
    3   0.0000018   0.0000208  -0.0000129  -0.0000266  -0.0000003  -0.0000091
            7           8           9          10          11          12
    1  -0.0000094  -0.0001262   0.0002544  -0.0001503  -0.0000009   0.0000084
    2   0.0000090  -0.0026767   0.0026451  -0.0011630  -0.0000256   0.0000080
    3  -0.0000049   0.0001357  -0.0003647   0.0002092   0.0000107  -0.0000240
           13          14          15          16
    1  -0.0000114  -0.0000059  -0.0000001   0.0000007
    2  -0.0000115  -0.0000231   0.0000223   0.0000005
    3   0.0000097   0.0000596  -0.0000145   0.0000096
 Max gradient component =       2.677E-03
 RMS gradient           =       5.992E-04
 Gradient time:  CPU 1.95 s  wall 1.94 s
 Geometry Optimization Parameters
   NAtoms,    NIC,     NZ,  NCons,   NDum,   NFix, NCnnct, MaxDiis
       16     111       0       1       0       0       0       0

 Cartesian Hessian Update
 Hessian Updated using BFGS Update


** CONSTRAINED OPTIMIZATION IN DELOCALIZED INTERNAL COORDINATES **
   Searching for a Minimum

   Optimization Cycle:   8

                       Coordinates (Angstroms)
     ATOM                X               Y               Z
      1  S         0.0139241029    0.1046673939    0.0666992343
      2  C         1.7269699676    0.0477706957   -0.0235952566
      3  H         2.3125589496    0.0626845599    0.8878859848
      4  C         2.2062469304   -0.0258095727   -1.3327418581
      5  H         3.2618270161   -0.0640196905   -1.5729348082
      6  C         1.1808057542   -0.0381459692   -2.2742660691
      7  H         1.3432540818   -0.0807935133   -3.3442487986
      8  C        -0.1120465467    0.0232309439   -1.6926271106
      9  C        -1.3424062403    0.0687331482   -2.3779817076
     10  C        -1.5461589290   -0.1348705152   -3.7672768835
     11  H        -0.7355497801   -0.3318313526   -4.4580067412
     12  C        -2.8856224036   -0.0672660323   -4.1406081857
     13  H        -3.2493584187   -0.1966097337   -5.1527100957
     14  C        -3.7287555364    0.1831366331   -3.0565840937
     15  H        -4.8067311286    0.2911437284   -3.0770579950
     16  S        -2.8892799293    0.3356628065   -1.5677090255
   Point Group: c1    Number of degrees of freedom:    42


   Energy is  -1104.570872559

              Constraints and their Current Values
                                        Value     Constraint
   Dihedral:        6   8   9  10       10.000       10.000
 Hessian Updated using BFGS Update

 41 Hessian modes will be used to form the next step
  Hessian Eigenvalues:
     0.011133    0.034970    0.044981    0.045000    0.045000    0.045000
     0.045002    0.045002    0.045003    0.045011    0.045020    0.045103
     0.130949    0.159942    0.159991    0.159998    0.160061    0.161871
     0.221280    0.221505    0.235865    0.237841    0.249996    0.283031
     0.294381    0.295494    0.301121    0.312567    0.354763    0.354907
     0.355129    0.355202    0.358274    0.359306    0.377004    0.404882
     0.433810    0.445747    0.463586    0.491647    0.497935

 Minimum Search - Taking Simple RFO Step
 Searching for Lamda that Minimizes Along All modes
 Value Taken    Lamda =   0.00000000
 Step Taken.  Stepsize is  0.001300

                             Maximum     Tolerance    Cnvgd?
         Gradient           0.000032      0.000300     YES
         Displacement       0.001050      0.001200     YES
         Energy change     -0.000000      0.000001     YES

 Final energy is   -1104.57087255872     


 ******************************
 **  OPTIMIZATION CONVERGED  **
 ******************************

                       Coordinates (Angstroms)
     ATOM                X               Y               Z
      1  S         0.0139241029    0.1046673939    0.0666992343
      2  C         1.7269699676    0.0477706957   -0.0235952566
      3  H         2.3125589496    0.0626845599    0.8878859848
      4  C         2.2062469304   -0.0258095727   -1.3327418581
      5  H         3.2618270161   -0.0640196905   -1.5729348082
      6  C         1.1808057542   -0.0381459692   -2.2742660691
      7  H         1.3432540818   -0.0807935133   -3.3442487986
      8  C        -0.1120465467    0.0232309439   -1.6926271106
      9  C        -1.3424062403    0.0687331482   -2.3779817076
     10  C        -1.5461589290   -0.1348705152   -3.7672768835
     11  H        -0.7355497801   -0.3318313526   -4.4580067412
     12  C        -2.8856224036   -0.0672660323   -4.1406081857
     13  H        -3.2493584187   -0.1966097337   -5.1527100957
     14  C        -3.7287555364    0.1831366331   -3.0565840937
     15  H        -4.8067311286    0.2911437284   -3.0770579950
     16  S        -2.8892799293    0.3356628065   -1.5677090255

Z-matrix Print:
$molecule
1 2
S 
C  1 1.716367
H  2 1.083483 1 119.650661
C  2 1.396061 1 113.186307 3 179.516407 0
H  4 1.083237 2 122.979057 1 179.676493 0
C  4 1.392174 2 112.444567 1 -0.074785 0
H  6 1.083084 4 123.916850 2 179.318897 0
C  6 1.418992 4 113.172664 2 -0.144720 0
C  8 1.409101 6 126.695846 4 177.924275 0
C  9 1.418841 8 126.655616 6 10.000001 0
H  10 1.083046 9 122.894927 8 -1.360239 0
C  10 1.392160 9 113.190118 8 178.087886 0
H  12 1.083228 10 124.599649 9 -179.904161 0
C  12 1.395952 10 112.432093 9 -0.169101 0
H  14 1.083566 12 127.162302 10 179.381191 0
S  14 1.716022 12 113.218154 10 -0.101804 0
$end

 
 --------------------------------------------------------------
 
                    Orbital Energies (a.u.)
 --------------------------------------------------------------
 
 Alpha MOs
 -- Occupied --
-89.098 -89.098 -10.432 -10.432 -10.418 -10.418 -10.393 -10.393
-10.379 -10.379  -8.157  -8.157  -6.122  -6.122  -6.118  -6.118
 -6.114  -6.114  -1.086  -1.061  -0.959  -0.934  -0.921  -0.880
 -0.789  -0.758  -0.726  -0.711  -0.703  -0.649  -0.595  -0.593
 -0.591  -0.587  -0.577  -0.555  -0.550  -0.538  -0.520  -0.472
 -0.443  -0.436  -0.391
 -- Virtual --
 -0.249  -0.181  -0.171  -0.143  -0.127  -0.124  -0.112  -0.106
 -0.101  -0.097  -0.092  -0.080  -0.075  -0.071  -0.067  -0.058
 -0.052  -0.048  -0.040  -0.028  -0.022  -0.018  -0.011  -0.008
 -0.005  -0.000   0.009   0.015   0.016   0.016   0.019   0.025
  0.031   0.032   0.036   0.037   0.047   0.055   0.059   0.059
  0.068   0.072   0.079   0.080   0.085   0.098   0.103   0.105
  0.114   0.131   0.148   0.149   0.151   0.151   0.159   0.171
  0.177   0.179   0.204   0.207   0.233   0.237   0.244   0.276
  0.280   0.310   0.341   0.380   0.384   0.401   0.402   0.425
  0.436   0.458   0.476   0.480   0.482   0.493   0.509   0.524
  0.534   0.554   0.557   0.560   0.571   0.588   0.608   0.618
  0.638   0.639   0.661   0.665   0.708   0.758   0.764   0.775
  0.785   0.789   0.813   0.829   0.833   0.837   0.855   0.857
  0.863   0.866   0.911   0.915   0.938   0.944   0.981   0.996
  1.027   1.030   1.039   1.075   1.081   1.164   1.165   1.172
  1.173   1.185   1.191   1.283   1.326   1.352   1.365   1.404
  1.467   1.511   1.525   1.614   1.648   1.712   1.728   1.756
  1.759   1.817   1.825   1.828   1.829   1.895   1.903   1.919
  1.943   1.995   2.013   2.054   2.074   2.113   2.122   2.191
  2.201   2.233   2.268   2.298   2.305   2.327   2.328   2.363
  2.374   2.383   2.395   2.418   2.510   2.516   2.546   2.568
  2.635   2.683   2.771   2.797   2.968   3.039   3.109   3.110
  3.219   3.255   3.535   3.587   3.765   3.847   4.043   4.103
  4.119   4.162   4.218   4.353   4.468   4.555
 
 Beta MOs
 -- Occupied --
-89.098 -89.098 -10.430 -10.430 -10.414 -10.414 -10.391 -10.391
-10.379 -10.379  -8.158  -8.157  -6.122  -6.122  -6.118  -6.118
 -6.115  -6.115  -1.081  -1.055  -0.952  -0.931  -0.919  -0.870
 -0.784  -0.754  -0.721  -0.708  -0.701  -0.646  -0.594  -0.588
 -0.585  -0.579  -0.574  -0.548  -0.539  -0.537  -0.518  -0.445
 -0.439  -0.431
 -- Virtual --
 -0.325  -0.227  -0.178  -0.155  -0.132  -0.126  -0.122  -0.110
 -0.106  -0.100  -0.092  -0.083  -0.079  -0.074  -0.070  -0.066
 -0.056  -0.050  -0.047  -0.039  -0.027  -0.021  -0.015  -0.010
 -0.008  -0.005   0.001   0.010   0.016   0.017   0.017   0.020
  0.026   0.032   0.034   0.038   0.039   0.048   0.056   0.060
  0.061   0.070   0.073   0.081   0.082   0.086   0.100   0.103
  0.107   0.114   0.132   0.149   0.150   0.151   0.153   0.161
  0.172   0.179   0.181   0.205   0.208   0.234   0.239   0.246
  0.278   0.281   0.312   0.341   0.380   0.387   0.403   0.403
  0.427   0.437   0.459   0.484   0.489   0.493   0.497   0.510
  0.526   0.544   0.556   0.558   0.562   0.572   0.598   0.610
  0.619   0.640   0.645   0.669   0.670   0.709   0.760   0.765
  0.780   0.788   0.791   0.817   0.830   0.834   0.838   0.857
  0.859   0.865   0.867   0.913   0.918   0.939   0.945   0.985
  1.001   1.031   1.034   1.045   1.083   1.084   1.168   1.169
  1.176   1.183   1.187   1.200   1.286   1.330   1.357   1.375
  1.412   1.471   1.525   1.538   1.623   1.649   1.715   1.729
  1.758   1.762   1.823   1.830   1.833   1.834   1.900   1.908
  1.928   1.954   2.008   2.020   2.067   2.080   2.116   2.126
  2.195   2.204   2.238   2.272   2.304   2.306   2.329   2.335
  2.369   2.377   2.388   2.398   2.424   2.511   2.520   2.551
  2.571   2.641   2.685   2.774   2.800   2.969   3.041   3.109
  3.110   3.220   3.256   3.537   3.589   3.766   3.847   4.049
  4.110   4.123   4.164   4.225   4.360   4.472   4.559
 --------------------------------------------------------------
 
          Ground-State Mulliken Net Atomic Charges

     Atom                 Charge (a.u.)    Spin (a.u.)
  --------------------------------------------------------
      1 S                    -0.025601      -0.056087
      2 C                     0.096721       0.337327
      3 H                     0.257200      -0.017125
      4 C                    -0.380002      -0.048794
      5 H                     0.174742       0.001400
      6 C                     0.345259       0.164962
      7 H                     0.143328      -0.010393
      8 C                    -0.112090       0.128767
      9 C                    -0.109216       0.129182
     10 C                     0.342287       0.164228
     11 H                     0.142941      -0.010376
     12 C                    -0.378786      -0.048404
     13 H                     0.174784       0.001395
     14 C                     0.096505       0.336832
     15 H                     0.257231      -0.017113
     16 S                    -0.025305      -0.055802
  --------------------------------------------------------
  Sum of atomic charges =     1.000000
  Sum of spin   charges =     1.000000

 -----------------------------------------------------------------
                    Cartesian Multipole Moments
 -----------------------------------------------------------------
    Charge (ESU x 10^10)
                 4.8032
    Dipole Moment (Debye)
         X      -3.2517      Y       0.1702      Z     -10.2142
       Tot      10.7207
    Quadrupole Moments (Debye-Ang)
        XX     -29.0455     XY      -1.5837     YY     -73.0637
        XZ      20.9542     YZ       1.0975     ZZ     -27.0209
    Octopole Moments (Debye-Ang^2)
       XXX      83.5664    XXY       1.6620    XYY      61.3103
       YYY     -16.8201    XXZ      22.6191    XYZ       2.4225
       YYZ     132.4280    XZZ     -17.2528    YZZ     -12.6181
       ZZZ     203.5209
    Hexadecapole Moments (Debye-Ang^3)
      XXXX   -1308.8499   XXXY       4.1964   XXYY    -364.3589
      XYYY      44.1354   YYYY     -98.9840   XXXZ    -264.4129
      XXYZ      -7.8689   XYYZ    -221.2118   YYYZ      12.8499
      XXZZ    -333.3284   XYZZ      16.8512   YYZZ    -416.5094
      XZZZ    -274.1381   YZZZ      55.2915   ZZZZ   -1472.4418
 -----------------------------------------------------------------
Archival summary:
1\1\nid00794\OPT\ProcedureUnspecified\BasisUnspecified\286(1+,2)\bwood\WedMay3102:27:132017WedMay3102:27:132017\0\\#,OPT,ProcedureUnspecified,BasisUnspecified,\\1,2\S\C,1,1.71637\H,2,1.08348,1,119.651\C,2,1.39606,1,113.186,3,179.516,0\H,4,1.08324,2,122.979,1,179.676,0\C,4,1.39217,2,112.445,1,-0.0747854,0\H,6,1.08308,4,123.917,2,179.319,0\C,6,1.41899,4,113.173,2,-0.14472,0\C,8,1.4091,6,126.696,4,177.924,0\C,9,1.41884,8,126.656,6,10,0\H,10,1.08305,9,122.895,8,-1.36024,0\C,10,1.39216,9,113.19,8,178.088,0\H,12,1.08323,10,124.6,9,-179.904,0\C,12,1.39595,10,112.432,9,-0.169101,0\H,14,1.08357,12,127.162,10,179.381,0\S,14,1.71602,12,113.218,10,-0.101804,0\\\@

 Total job time:  85.22s(wall), 85.73s(cpu) 
 Wed May 31 02:27:13 2017

        *************************************************************
        *                                                           *
        *  Thank you very much for using Q-Chem.  Have a nice day.  *
        *                                                           *
        *************************************************************


0 sent ACK to 0 
now end server 0 ... 
