srun -N 1 --ntasks-per-node 16 --cpus-per-task 4 --cpu_bind=cores --nodelist nid00848 /global/project/projectdirs/jcesr/qchem/qc44/cnl_qc441/dist/exe/qcprog.cori.haswell.exe .pt_n2_cation_-30.0.in.27444.qcin.1 /global/cscratch1/sd/bwood/qchem/nx/qchem27444/
Process 2 of 16 is on nid00848 - thread support 0
Process 3 of 16 is on nid00848 - thread support 0
Process 4 of 16 is on nid00848 - thread support 0
Process 6 of 16 is on nid00848 - thread support 0
Process 0 of 16 is on nid00848 - thread support 0
Process 1 of 16 is on nid00848 - thread support 0
Process 5 of 16 is on nid00848 - thread support 0
Process 15 of 16 is on nid00848 - thread support 0
initial socket setup ...start
initial socket setup ...done 
now start server 0 ... 
nid00848 10.128.3
Q-Chem Developer Version! Running on 10.128.3.*
                  Welcome to Q-Chem
     A Quantum Leap Into The Future Of Chemistry


 Q-Chem 4.4, Q-Chem, Inc., Pleasanton, CA (2016)

 Y. Shao,  Z. Gan,  E. Epifanovsky,  A. T. B. Gilbert,  M. Wormit,  
 J. Kussmann,  A. W. Lange,  A. Behn,  J. Deng,  X. Feng,  D. Ghosh,  
 M. Goldey,  P. R. Horn,  L. D. Jacobson,  I. Kaliman,  F. Rob,  
 R. Z. Khaliullin,  T. Kus,  A. Landau,  J. Liu,  E. I. Proynov,  Y. M. Rhee,  
 R. M. Richard,  M. A. Rohrdanz,  R. P. Steele,  E. J. Sundstrom,  
 H. L. Woodcock III,  P. M. Zimmerman,  D. Zuev,  B. Albrecht,  E. Alguire,  
 B. Austin,  S. A. Baeppler,  G. J. O. Beran,  Y. A. Bernard,  
 E. J. Berquist,  K. Brandhorst,  K. B. Bravaya,  S. T. Brown,  D. Casanova,  
 C.-M. Chang,  Y. Chen,  S. H. Chien,  K. D. Closser,  M. P. Coons,  
 D. L. Crittenden,  S. Dasgupta,  M. Diedenhofen,  R. A. DiStasio Jr.,  
 H. Do,  A. D. Dutoi,  R. G. Edgar,  P.-T. Fang,  S. Fatehi,  Q. Feng,  
 L. Fusti-Molnar,  A. Ghysels,  A. Golubeva-Zadorozhnaya,  J. Gomes,  
 A. Gunina,  M. W. D. Hanson-Heine,  P. H. P. Harbach,  A. W. Hauser,  
 J. E. Herr,  E. G. Hohenstein,  Z. C. Holden,  K. Hui,  T.-C. Jagau,  H. Ji,  
 B. Kaduk,  K. Khistyaev,  Jaehoon Kim,  Jihan Kim,  R. A. King,  
 P. Klunzinger,  K. Koh,  D. Kosenkov,  T. Kowalczyk,  C. M. Krauter,  
 A. Kunitsa,  K. U. Lao,  A. Laurent,  K. V. Lawler,  J. Lee,  D. Lefrancois,  
 S. Lehtola,  S. V. Levchenko,  C. Y. Lin,  Y.-S. Lin,  F. Liu,  E. Livshits,  
 R. C. Lochan,  A. Luenser,  P. Manohar,  S. F. Manzer,  S.-P. Mao,  Y. Mao,  
 N. Mardirossian,  A. V. Marenich,  L. A. Martinez-Martinez,  S. A. Maurer,  
 N. J. Mayhall,  J.-M. Mewes,  A. F. Morrison,  K. Nanda,  T. S. Nguyen-Beck,  
 C. M. Oana,  R. Olivares-Amaya,  D. P. O'Neill,  J. A. Parkhill,  
 T. M. Perrine,  R. Peverati,  P. A. Pieniazek,  F. Plasser,  A. Prociuk,  
 D. R. Rehn,  E. Rosta,  N. J. Russ,  N. Sergueev,  S. M. Sharada,  
 S. Sharma,  D. W. Small,  A. Sodt,  T. Stauch,  T. Stein,  D. Stuck,  
 Y.-C. Su,  A. J. W. Thom,  T. Tsuchimochi,  L. Vogt,  O. Vydrov,  T. Wang,  
 M. A. Watson,  J. Wenzel,  A. White,  C. F. Williams,  V. Vanovschi,  
 K. Yao,  S. Yeganeh,  S. R. Yost,  Z.-Q. You,  I. Y. Zhang,  X. Zhang,  
 Y. Zhao,  B. R. Brooks,  G. K. L. Chan,  D. M. Chipman,  C. J. Cramer,  
 W. A. Goddard III,  M. S. Gordon,  W. J. Hehre,  A. Klamt,  
 H. F. Schaefer III,  M. W. Schmidt,  C. D. Sherrill,  D. G. Truhlar,  
 A. Warshel,  X. Xu,  A. Aspuru-Guzik,  R. Baer,  A. T. Bell,  N. A. Besley,  
 J.-D. Chai,  A. Dreuw,  B. D. Dunietz,  T. R. Furlani,  S. R. Gwaltney,  
 C.-P. Hsu,  Y. Jung,  J. Kong,  D. S. Lambrecht,  W. Liang,  C. Ochsenfeld,  
 V. A. Rassolov,  L. V. Slipchenko,  J. E. Subotnik,  T. Van Voorhis,  
 J. M. Herbert,  A. I. Krylov,  P. M. W. Gill,  M. Head-Gordon

 Contributors to earlier versions of Q-Chem not listed above: 
 R. D. Adamson,  J. Baker,  E. F. C. Byrd,  A. K. Chakraborty,  C.-L. Cheng,  
 H. Dachsel,  R. J. Doerksen,  G. Hawkins,  A. Heyden,  S. Hirata,  
 G. Kedziora,  F. J. Keil,  C. Kelley,  P. P. Korambath,  W. Kurlancheek,  
 A. M. Lee,  M. S. Lee,  D. Liotard,  I. Lotan,  P. E. Maslen,  N. Nair,  
 D. Neuhauser,  R. Olson,  B. Peters,  J. Ritchie,  N. E. Schultz,  
 N. Shenvi,  A. C. Simmonett,  K. S. Thanthiriwatte,  Q. Wu,  W. Zhang

 Please cite Q-Chem as follows:
 Y. Shao et al., Mol. Phys. 113, 184-215 (2015)
 DOI: 10.1080/00268976.2014.952696

 Q-Chem 4.4.2 for Intel X86 EM64T Linux

 Parts of Q-Chem use Armadillo 5.200.1 (Boston Tea Smuggler).
 http://arma.sourceforge.net/

 Q-Chem begins on Wed May 31 02:25:59 2017  

Host: nid00776
0

     Scratch files written to /global/cscratch1/sd/bwood/qchem/nx/qchem27444.0//
 Parallel job on  16  processors

Checking the input file for inconsistencies... 	...done.

--------------------------------------------------------------
User input:
--------------------------------------------------------------
$molecule
 1  2
 S           0.00238887        0.06077275        0.00183269
 C           1.73707619        0.03315849        0.00323229
 H           2.27612737        0.05289032        0.94042557
 C           2.24169204       -0.01546201       -1.26965798
 H           3.30285780       -0.04005365       -1.48972496
 C           1.22479222       -0.01612968       -2.26811464
 H           1.42674790       -0.02650987       -3.33334501
 C          -0.05393771        0.02880388       -1.75170966
 C          -1.32450815        0.04889988       -2.45636342
 C          -1.61927000        0.56834578       -3.70028056
 H          -0.87302722        1.03610928       -4.33284446
 C          -2.98269975        0.39898504       -4.07877888
 H          -3.39262504        0.73643102       -5.02386412
 C          -3.72262077       -0.24933774       -3.12519163
 H          -4.77050983       -0.51516394       -3.15250879
 S          -2.76440370       -0.64953580       -1.73551655
$end


$rem
         jobtype = opt
        exchange = b3lyp
           basis = 6-31++g**
  max_scf_cycles = 150
      mem_static = 775
       mem_total = 7750
      sym_ignore = true
        symmetry = false
          thresh = 12
$end


$opt
CONSTRAINT
tors 6 8 9 10 -30.0
ENDCONSTRAINT
$end

--------------------------------------------------------------
 ----------------------------------------------------------------
             Standard Nuclear Orientation (Angstroms)
    I     Atom           X                Y                Z
 ----------------------------------------------------------------
    1      S       0.0023888700     0.0607727500     0.0018326900
    2      C       1.7370761900     0.0331584900     0.0032322900
    3      H       2.2761273700     0.0528903200     0.9404255700
    4      C       2.2416920400    -0.0154620100    -1.2696579800
    5      H       3.3028578000    -0.0400536500    -1.4897249600
    6      C       1.2247922200    -0.0161296800    -2.2681146400
    7      H       1.4267479000    -0.0265098700    -3.3333450100
    8      C      -0.0539377100     0.0288038800    -1.7517096600
    9      C      -1.3245081500     0.0488998800    -2.4563634200
   10      C      -1.6192700000     0.5683457800    -3.7002805600
   11      H      -0.8730272200     1.0361092800    -4.3328444600
   12      C      -2.9826997500     0.3989850400    -4.0787788800
   13      H      -3.3926250400     0.7364310200    -5.0238641200
   14      C      -3.7226207700    -0.2493377400    -3.1251916300
   15      H      -4.7705098300    -0.5151639400    -3.1525087900
   16      S      -2.7644037000    -0.6495358000    -1.7355165500
 ----------------------------------------------------------------
 Nuclear Repulsion Energy =   632.2055938993 hartrees
 There are       43 alpha and       42 beta electrons
 Requested basis set is 6-31++G(d,p)
 There are 76 shells and 234 basis functions

 Total QAlloc Memory Limit   7750 MB
 Mega-Array Size       758 MB
 MEM_STATIC part       775 MB
 A cutoff of  1.0D-12 yielded   2527 shell pairs
 There are     24871 function pairs

 Q-Chem warning in module /project/projectdirs/jcesr/qchem/qc44/cnl_qc441/compile/cori/qc_src/libqints/qchem/aobasis.C, line 68:

 Using reconstructed effective core potential

 
 -------------------------------------------------------
 OpenMP Integral Computing Module                       
 Release: version 1.0, May 2013, Q-Chem Inc. Pittsburgh 
 -------------------------------------------------------
 Integral Job Info:
 Integral job number is                      11
 Integral operator is                         1
 short-range coefficients                     0
 long-range coefficients              100000000
 Omega coefficients                           0
 if combine SR and LR in K                    0
 Integral screening is                        0
 Integral computing path is                   2
 max size of driver memory is            800000
 size of driver memory is                593474
 size of scratch memory is             15166112
 max col of scratch BK array               1296
 max len of scratch array in speh3          155
 max len of scratch index in speh4           18
 max int batch size is                      520
 min int batch size is                       52
 fixed nKL is                                52
 max L of basis functions is                  2
 order of int derivative is                   0
 number of shells is                         76
 number of basis is                         234
 number of cartesian basis is               234
 number of contracted shell pairs          2527
 number of primitive shell pairs           8239
 maxK2 (contraction) of shell pair           36
 max number of K2 of shell pair               1
 max number of CS2 of shell pair            260
 max number of PS2 of shell pair           1500
 mem total for path MDJ                   51992
 -------------------------------------------------------
 Smallest overlap matrix eigenvalue = 9.87E-07
 Linear dependence detected in AO basis
 Number of orthogonalized atomic orbitals = 233
 Maximum deviation from orthogonality = 8.285E-11

 Scale SEOQF with 1.000000e-01/1.000000e-01/1.000000e-01

 Standard Electronic Orientation quadrupole field applied
 Nucleus-field energy     =    -0.0000000335 hartrees
 Guess from superposition of atomic densities
 Warning:  Energy on first SCF cycle will be non-variational
 An unrestricted hybrid HF-DFT SCF calculation will be
 performed using Pulay DIIS extrapolation
 Exchange:     0.2000 Hartree-Fock + 0.0800 Slater + 0.7200 B88
 Correlation:  0.1900 VWN1RPA + 0.8100 LYP
 Using SG-1 standard quadrature grid
 SCF converges when DIIS error is below 1.0E-08
 Inaccurate integrated density:
   Number of electrons =    85
   Numerical integral  =    85.999986992195
   Relative error      =     1.1764552849 %
 ---------------------------------------
  Cycle       Energy         DIIS Error
 ---------------------------------------
    1   -1107.1965512443      4.43E-02
    2   -1104.4362487232      3.98E-03
    3   -1104.1554309040      7.01E-03
    4   -1104.5546484343      8.22E-04
    5   -1104.5575687962      5.96E-04
    6   -1104.5602551215      2.29E-04
    7   -1104.5607638708      5.93E-05
    8   -1104.5608443722      2.73E-05
    9   -1104.5608953531      1.58E-05
   10   -1104.5609291444      6.92E-06
   11   -1104.5609331436      5.06E-06
   12   -1104.5609348412      1.59E-06
   13   -1104.5609351414      6.41E-07
   14   -1104.5609351559      2.69E-07
   15   -1104.5609351630      6.11E-08
   16   -1104.5609351627      4.01E-08
   17   -1104.5609351633      1.89E-08
   18   -1104.5609351624      5.26E-09 Convergence criterion met
 ---------------------------------------
 <S^2> = 0.7640
 SCF time:  CPU 12.25 s  wall 11.67 s
 SCF   energy in the final basis set = -1104.5609351624
 Total energy in the final basis set = -1104.5609351624
 
 --------------------------------------------------------------
 
                    Orbital Energies (a.u.)
 --------------------------------------------------------------
 
 Alpha MOs
 -- Occupied --
-89.094 -89.094 -10.434 -10.434 -10.417 -10.417 -10.394 -10.394
-10.381 -10.381  -8.153  -8.153  -6.117  -6.117  -6.113  -6.113
 -6.110  -6.110  -1.088  -1.064  -0.960  -0.928  -0.916  -0.893
 -0.786  -0.756  -0.732  -0.711  -0.701  -0.652  -0.600  -0.594
 -0.593  -0.582  -0.580  -0.557  -0.552  -0.529  -0.516  -0.469
 -0.436  -0.433  -0.407
 -- Virtual --
 -0.238  -0.186  -0.165  -0.141  -0.127  -0.125  -0.121  -0.106
 -0.098  -0.094  -0.089  -0.084  -0.078  -0.073  -0.071  -0.063
 -0.050  -0.040  -0.040  -0.029  -0.022  -0.021  -0.015  -0.006
 -0.004   0.004   0.009   0.012   0.012   0.017   0.017   0.026
  0.029   0.030   0.038   0.041   0.049   0.051   0.053   0.056
  0.060   0.071   0.073   0.077   0.090   0.096   0.098   0.110
  0.117   0.123   0.130   0.134   0.145   0.147   0.155   0.157
  0.171   0.174   0.182   0.213   0.224   0.227   0.246   0.256
  0.288   0.310   0.343   0.371   0.377   0.391   0.402   0.407
  0.441   0.459   0.462   0.480   0.490   0.498   0.503   0.531
  0.542   0.552   0.558   0.558   0.573   0.580   0.583   0.629
  0.631   0.646   0.660   0.676   0.717   0.749   0.771   0.780
  0.780   0.794   0.806   0.806   0.825   0.835   0.841   0.843
  0.878   0.888   0.898   0.919   0.924   0.945   0.955   0.968
  1.002   1.006   1.014   1.075   1.091   1.161   1.168   1.170
  1.174   1.185   1.208   1.259   1.311   1.327   1.364   1.409
  1.484   1.507   1.538   1.602   1.682   1.697   1.709   1.737
  1.750   1.770   1.802   1.833   1.848   1.888   1.902   1.951
  1.956   1.999   2.001   2.049   2.063   2.094   2.114   2.196
  2.199   2.243   2.276   2.295   2.296   2.327   2.328   2.341
  2.367   2.401   2.407   2.421   2.499   2.519   2.542   2.591
  2.597   2.681   2.744   2.788   2.968   3.032   3.108   3.108
  3.228   3.257   3.540   3.578   3.771   3.835   4.052   4.112
  4.124   4.142   4.220   4.351   4.469   4.545
 
 Beta MOs
 -- Occupied --
-89.094 -89.094 -10.432 -10.432 -10.413 -10.413 -10.392 -10.391
-10.381 -10.381  -8.153  -8.153  -6.118  -6.118  -6.114  -6.114
 -6.110  -6.110  -1.082  -1.058  -0.952  -0.925  -0.913  -0.883
 -0.782  -0.753  -0.727  -0.708  -0.699  -0.649  -0.597  -0.591
 -0.582  -0.578  -0.578  -0.548  -0.540  -0.528  -0.515  -0.440
 -0.433  -0.429
 -- Virtual --
 -0.342  -0.218  -0.176  -0.156  -0.131  -0.126  -0.122  -0.115
 -0.106  -0.097  -0.091  -0.084  -0.083  -0.077  -0.072  -0.070
 -0.062  -0.048  -0.039  -0.039  -0.028  -0.021  -0.019  -0.014
 -0.005  -0.004   0.005   0.010   0.013   0.013   0.018   0.018
  0.027   0.030   0.031   0.040   0.042   0.050   0.053   0.054
  0.057   0.062   0.072   0.074   0.078   0.091   0.096   0.099
  0.110   0.119   0.124   0.130   0.135   0.146   0.148   0.157
  0.160   0.173   0.175   0.184   0.215   0.227   0.227   0.247
  0.259   0.289   0.312   0.344   0.373   0.377   0.393   0.405
  0.410   0.442   0.460   0.464   0.491   0.494   0.507   0.508
  0.532   0.544   0.554   0.561   0.564   0.578   0.581   0.590
  0.631   0.633   0.652   0.667   0.682   0.719   0.750   0.775
  0.782   0.783   0.797   0.809   0.809   0.826   0.837   0.844
  0.844   0.879   0.891   0.900   0.920   0.926   0.946   0.959
  0.973   1.006   1.009   1.019   1.079   1.094   1.165   1.171
  1.175   1.183   1.193   1.211   1.264   1.315   1.331   1.374
  1.416   1.494   1.521   1.549   1.605   1.688   1.701   1.711
  1.739   1.752   1.777   1.808   1.838   1.853   1.893   1.906
  1.960   1.966   2.008   2.013   2.060   2.069   2.098   2.118
  2.200   2.202   2.249   2.281   2.297   2.300   2.330   2.332
  2.346   2.372   2.407   2.410   2.426   2.501   2.523   2.547
  2.594   2.603   2.683   2.747   2.790   2.969   3.033   3.109
  3.109   3.229   3.258   3.542   3.580   3.771   3.835   4.058
  4.119   4.127   4.145   4.227   4.358   4.473   4.549
 --------------------------------------------------------------
 
          Ground-State Mulliken Net Atomic Charges

     Atom                 Charge (a.u.)    Spin (a.u.)
  --------------------------------------------------------
      1 S                    -0.002005      -0.051033
      2 C                     0.128105       0.309011
      3 H                     0.254045      -0.015037
      4 C                    -0.339747      -0.025734
      5 H                     0.175965       0.000132
      6 C                     0.382813       0.153406
      7 H                     0.172517      -0.008383
      8 C                    -0.273695       0.137705
      9 C                    -0.267003       0.137763
     10 C                     0.380998       0.153161
     11 H                     0.172457      -0.008356
     12 C                    -0.338481      -0.025510
     13 H                     0.175975       0.000126
     14 C                     0.127253       0.308693
     15 H                     0.254024      -0.015033
     16 S                    -0.003220      -0.050909
  --------------------------------------------------------
  Sum of atomic charges =     1.000000
  Sum of spin   charges =     1.000000

 -----------------------------------------------------------------
                    Cartesian Multipole Moments
 -----------------------------------------------------------------
    Charge (ESU x 10^10)
                 4.8032
    Dipole Moment (Debye)
         X      -3.1314      Y       0.2709      Z     -10.4283
       Tot      10.8917
    Quadrupole Moments (Debye-Ang)
        XX     -28.8430     XY       1.6050     YY     -71.5341
        XZ      22.3504     YZ      -3.2862     ZZ     -27.2306
    Octopole Moments (Debye-Ang^2)
       XXX      81.7160    XXY      -8.7610    XYY      56.2353
       YYY       7.2772    XXZ      19.7422    XYZ       2.0458
       YYZ     128.6173    XZZ     -23.0161    YZZ      23.8118
       ZZZ     219.4259
    Hexadecapole Moments (Debye-Ang^3)
      XXXX   -1297.6737   XXXY      12.7121   XXYY    -354.8666
      XYYY     -44.2395   YYYY    -143.0414   XXXZ    -263.8482
      XXYZ      19.3018   XYYZ    -214.6452   YYYZ      16.1782
      XXZZ    -310.0277   XYZZ     -46.4789   YYZZ    -399.2072
      XZZZ    -287.5082   YZZZ     -98.7845   ZZZZ   -1570.4630
 -----------------------------------------------------------------
 Calculating analytic gradient of the SCF energy
 Gradient of SCF Energy
            1           2           3           4           5           6
    1   0.0003792   0.0185074  -0.0006645   0.0020220   0.0004351  -0.0349935
    2   0.0020046   0.0015068  -0.0010032   0.0006427   0.0006933  -0.0065417
    3  -0.0128725  -0.0088900  -0.0010761   0.0309159   0.0005897   0.0035380
            7           8           9          10          11          12
    1  -0.0010987   0.0368844  -0.0201226   0.0148720   0.0011702  -0.0258265
    2   0.0016479  -0.0016639   0.0096646  -0.0030284  -0.0015726  -0.0122356
    3  -0.0002376  -0.0006385  -0.0295398   0.0324298   0.0000886   0.0117709
           13          14          15          16
    1  -0.0005708  -0.0026010   0.0010116   0.0105959
    2  -0.0007379   0.0061416   0.0011554   0.0033264
    3  -0.0003242  -0.0194813   0.0004148  -0.0066877
 Max gradient component =       3.688E-02
 RMS gradient           =       1.324E-02
 Gradient time:  CPU 1.93 s  wall 1.95 s
 Geometry Optimization Parameters
   NAtoms,    NIC,     NZ,  NCons,   NDum,   NFix, NCnnct, MaxDiis
       16     111       0       1       0       0       0       0


** CONSTRAINED OPTIMIZATION IN DELOCALIZED INTERNAL COORDINATES **
   Searching for a Minimum

   Optimization Cycle:   1

                       Coordinates (Angstroms)
     ATOM                X               Y               Z
      1  S         0.0023888700    0.0607727500    0.0018326900
      2  C         1.7370761900    0.0331584900    0.0032322900
      3  H         2.2761273700    0.0528903200    0.9404255700
      4  C         2.2416920400   -0.0154620100   -1.2696579800
      5  H         3.3028578000   -0.0400536500   -1.4897249600
      6  C         1.2247922200   -0.0161296800   -2.2681146400
      7  H         1.4267479000   -0.0265098700   -3.3333450100
      8  C        -0.0539377100    0.0288038800   -1.7517096600
      9  C        -1.3245081500    0.0488998800   -2.4563634200
     10  C        -1.6192700000    0.5683457800   -3.7002805600
     11  H        -0.8730272200    1.0361092800   -4.3328444600
     12  C        -2.9826997500    0.3989850400   -4.0787788800
     13  H        -3.3926250400    0.7364310200   -5.0238641200
     14  C        -3.7226207700   -0.2493377400   -3.1251916300
     15  H        -4.7705098300   -0.5151639400   -3.1525087900
     16  S        -2.7644037000   -0.6495358000   -1.7355165500
   Point Group: c1    Number of degrees of freedom:    42


   Energy is  -1104.560935162

              Constraints and their Current Values
                                        Value     Constraint
   Dihedral:        6   8   9  10      -30.000      -30.000

 Attempting to Generate Delocalized Internal Coordinates

 41 Hessian modes will be used to form the next step
  Hessian Eigenvalues:
     0.045000    0.045000    0.045000    0.045000    0.045000    0.045000
     0.045002    0.045002    0.045003    0.045004    0.045011    0.045012
     0.159943    0.159949    0.159991    0.159992    0.160000    0.160000
     0.221282    0.221282    0.237835    0.237839    0.250000    0.250000
     0.294264    0.294663    0.312518    0.312618    0.354736    0.354850
     0.355125    0.355132    0.358226    0.358329    0.378510    0.404854
     0.404909    0.463547    0.463616    0.497922    0.497945

 Minimum Search - Taking Simple RFO Step
 Searching for Lamda that Minimizes Along All modes
 Value Taken    Lamda =  -0.01193436
 Step Taken.  Stepsize is  0.206553

                             Maximum     Tolerance    Cnvgd?
         Gradient           0.029183      0.000300      NO
         Displacement       0.094231      0.001200      NO
         Energy change     *********      0.000001      NO


 New Cartesian Coordinates Obtained by Inverse Iteration

 Displacement from previous Coordinates is:  0.403176
 ----------------------------------------------------------------
             Standard Nuclear Orientation (Angstroms)
    I     Atom           X                Y                Z
 ----------------------------------------------------------------
    1      S      -0.0310447949     0.0415252499     0.0417670357
    2      C       1.6960044178     0.0273827351    -0.0236487431
    3      H       2.2545683598     0.0426454600     0.9042737548
    4      C       2.2067538716    -0.0002458007    -1.3174034371
    5      H       3.2652018392    -0.0219786202    -1.5485058626
    6      C       1.1982704737     0.0083355282    -2.2859137203
    7      H       1.3859882952    -0.0034678647    -3.3537078864
    8      C      -0.0894108972     0.0356264202    -1.7217599885
    9      C      -1.3276132252     0.0233327840    -2.4169895840
   10      C      -1.5849624825     0.5472814889    -3.6962694198
   11      H      -0.8289901790     1.0139966106    -4.3177775225
   12      C      -2.9218300496     0.3966334990    -4.0775463979
   13      H      -3.3205764573     0.7353991212    -5.0264933076
   14      C      -3.6798725332    -0.2424284912    -3.1017066711
   15      H      -4.7320034782    -0.4961890441    -3.1469693410
   16      S      -2.7824029401    -0.6556453259    -1.6837590184
 ----------------------------------------------------------------
 Nuclear Repulsion Energy =   633.0463126305 hartrees
 There are       43 alpha and       42 beta electrons
 Applying Cartesian multipole field
    Component          Value
    ---------          -----
     (2,0,0)        1.00000E-11
     (0,2,0)        2.00000E-11
     (0,0,2)       -3.00000E-11
 Nucleus-field energy     =    -0.0000000332 hartrees
 Requested basis set is 6-31++G(d,p)
 There are 76 shells and 234 basis functions
 A cutoff of  1.0D-12 yielded   2535 shell pairs
 There are     24901 function pairs

 Q-Chem warning in module /project/projectdirs/jcesr/qchem/qc44/cnl_qc441/compile/cori/qc_src/libqints/qchem/aobasis.C, line 68:

 Using reconstructed effective core potential

 Smallest overlap matrix eigenvalue = 8.71E-07
 Linear dependence detected in AO basis
 Number of orthogonalized atomic orbitals = 233
 Maximum deviation from orthogonality = 3.976E-11
 Guess MOs from SCF MO coefficient file
 Reading MOs from coefficient file
 Reading MOs from coefficient file
 An unrestricted hybrid HF-DFT SCF calculation will be
 performed using Pulay DIIS extrapolation
 Exchange:     0.2000 Hartree-Fock + 0.0800 Slater + 0.7200 B88
 Correlation:  0.1900 VWN1RPA + 0.8100 LYP
 Using SG-1 standard quadrature grid
 SCF converges when DIIS error is below 1.0E-08
 Geometry optimization detected.  Setting ReadMinima to 0
 Setting SaveMinima to 0
 ---------------------------------------
  Cycle       Energy         DIIS Error
 ---------------------------------------
    1   -1104.5534809598      2.38E-03
    2   -1104.5663230430      2.84E-04
    3   -1104.5659182984      3.87E-04
    4   -1104.5669290552      9.01E-05
    5   -1104.5669837517      3.96E-05
    6   -1104.5669964698      7.02E-06
    7   -1104.5669974581      4.00E-06
    8   -1104.5669978060      1.74E-06
    9   -1104.5669979631      6.15E-07
   10   -1104.5669980596      3.33E-07
   11   -1104.5669980805      2.07E-07
   12   -1104.5669980840      1.02E-07
   13   -1104.5669980825      6.67E-08
   14   -1104.5669980840      3.36E-08
   15   -1104.5669980839      8.84E-09 Convergence criterion met
 ---------------------------------------
 <S^2> = 0.7671
 SCF time:  CPU 10.34 s  wall 10.62 s
 SCF   energy in the final basis set = -1104.5669980839
 Total energy in the final basis set = -1104.5669980839
 
 --------------------------------------------------------------
 
                    Orbital Energies (a.u.)
 --------------------------------------------------------------
 
 Alpha MOs
 -- Occupied --
-89.098 -89.098 -10.431 -10.430 -10.418 -10.418 -10.392 -10.392
-10.379 -10.379  -8.157  -8.157  -6.121  -6.121  -6.117  -6.117
 -6.114  -6.114  -1.086  -1.060  -0.957  -0.933  -0.921  -0.881
 -0.786  -0.756  -0.728  -0.712  -0.702  -0.646  -0.593  -0.593
 -0.589  -0.581  -0.579  -0.555  -0.549  -0.538  -0.524  -0.465
 -0.440  -0.437  -0.396
 -- Virtual --
 -0.243  -0.190  -0.169  -0.141  -0.130  -0.127  -0.119  -0.106
 -0.099  -0.094  -0.089  -0.084  -0.077  -0.072  -0.069  -0.060
 -0.050  -0.041  -0.039  -0.029  -0.021  -0.018  -0.014  -0.005
 -0.005   0.003   0.010   0.012   0.012   0.017   0.017   0.026
  0.029   0.030   0.039   0.040   0.049   0.052   0.055   0.056
  0.061   0.073   0.074   0.082   0.092   0.093   0.098   0.104
  0.111   0.127   0.128   0.132   0.146   0.149   0.154   0.156
  0.176   0.180   0.181   0.210   0.223   0.226   0.240   0.260
  0.289   0.311   0.342   0.371   0.375   0.395   0.400   0.402
  0.438   0.456   0.468   0.481   0.489   0.500   0.501   0.526
  0.547   0.556   0.557   0.559   0.573   0.586   0.592   0.621
  0.628   0.648   0.661   0.679   0.712   0.750   0.767   0.777
  0.777   0.802   0.807   0.807   0.830   0.832   0.839   0.844
  0.873   0.888   0.900   0.911   0.919   0.940   0.959   0.970
  1.002   1.012   1.029   1.077   1.091   1.164   1.168   1.174
  1.177   1.188   1.192   1.268   1.307   1.322   1.366   1.405
  1.481   1.507   1.533   1.623   1.658   1.715   1.722   1.740
  1.756   1.798   1.801   1.843   1.843   1.895   1.899   1.941
  1.956   2.004   2.007   2.047   2.067   2.106   2.111   2.199
  2.201   2.240   2.264   2.291   2.300   2.328   2.330   2.342
  2.363   2.396   2.404   2.411   2.493   2.519   2.543   2.587
  2.617   2.684   2.742   2.785   2.969   3.027   3.107   3.107
  3.223   3.253   3.541   3.584   3.766   3.833   4.057   4.095
  4.128   4.148   4.223   4.348   4.474   4.551
 
 Beta MOs
 -- Occupied --
-89.098 -89.098 -10.429 -10.428 -10.413 -10.413 -10.390 -10.390
-10.380 -10.380  -8.157  -8.157  -6.121  -6.121  -6.117  -6.117
 -6.114  -6.114  -1.080  -1.054  -0.949  -0.931  -0.918  -0.870
 -0.781  -0.752  -0.724  -0.709  -0.701  -0.643  -0.591  -0.586
 -0.581  -0.579  -0.576  -0.545  -0.539  -0.537  -0.523  -0.439
 -0.436  -0.433
 -- Virtual --
 -0.330  -0.223  -0.182  -0.158  -0.132  -0.126  -0.126  -0.113
 -0.105  -0.098  -0.091  -0.084  -0.083  -0.077  -0.070  -0.069
 -0.059  -0.048  -0.040  -0.037  -0.028  -0.021  -0.016  -0.014
 -0.005  -0.004   0.005   0.011   0.013   0.013   0.017   0.018
  0.027   0.030   0.031   0.040   0.041   0.050   0.053   0.056
  0.057   0.063   0.074   0.075   0.084   0.093   0.094   0.099
  0.106   0.111   0.128   0.130   0.134   0.147   0.149   0.156
  0.157   0.179   0.182   0.182   0.212   0.225   0.228   0.242
  0.263   0.291   0.312   0.342   0.373   0.375   0.396   0.403
  0.405   0.439   0.457   0.471   0.493   0.493   0.506   0.509
  0.527   0.549   0.558   0.559   0.563   0.577   0.594   0.594
  0.623   0.630   0.654   0.668   0.683   0.714   0.752   0.770
  0.779   0.780   0.805   0.810   0.811   0.830   0.834   0.841
  0.846   0.874   0.891   0.902   0.913   0.921   0.941   0.964
  0.975   1.007   1.017   1.034   1.081   1.094   1.167   1.173
  1.179   1.185   1.196   1.196   1.273   1.312   1.327   1.375
  1.413   1.489   1.521   1.545   1.629   1.663   1.719   1.724
  1.742   1.758   1.804   1.807   1.847   1.848   1.901   1.902
  1.950   1.965   2.015   2.017   2.059   2.073   2.111   2.114
  2.203   2.204   2.245   2.269   2.295   2.301   2.333   2.334
  2.346   2.368   2.400   2.409   2.417   2.495   2.524   2.548
  2.590   2.622   2.687   2.744   2.788   2.970   3.029   3.107
  3.107   3.225   3.255   3.542   3.585   3.767   3.833   4.063
  4.102   4.131   4.150   4.230   4.355   4.478   4.555
 --------------------------------------------------------------
 
          Ground-State Mulliken Net Atomic Charges

     Atom                 Charge (a.u.)    Spin (a.u.)
  --------------------------------------------------------
      1 S                     0.027718      -0.050920
      2 C                     0.081002       0.327468
      3 H                     0.249940      -0.016596
      4 C                    -0.300208      -0.037319
      5 H                     0.175073       0.000989
      6 C                     0.315897       0.157848
      7 H                     0.170542      -0.008880
      8 C                    -0.221500       0.127466
      9 C                    -0.215981       0.127634
     10 C                     0.314502       0.157618
     11 H                     0.170457      -0.008872
     12 C                    -0.299190      -0.037163
     13 H                     0.175094       0.000987
     14 C                     0.080248       0.327152
     15 H                     0.249921      -0.016589
     16 S                     0.026485      -0.050824
  --------------------------------------------------------
  Sum of atomic charges =     1.000000
  Sum of spin   charges =     1.000000

 -----------------------------------------------------------------
                    Cartesian Multipole Moments
 -----------------------------------------------------------------
    Charge (ESU x 10^10)
                 4.8032
    Dipole Moment (Debye)
         X      -3.2230      Y       0.2259      Z     -10.2625
       Tot      10.7591
    Quadrupole Moments (Debye-Ang)
        XX     -30.0648     XY       1.7415     YY     -71.5197
        XZ      21.0960     YZ      -3.4117     ZZ     -27.6488
    Octopole Moments (Debye-Ang^2)
       XXX      87.5745    XXY      -8.3661    XYY      56.7812
       YYY       8.0245    XXZ      23.1053    XYZ       2.0324
       YYZ     127.7265    XZZ     -18.3087    YZZ      24.6510
       ZZZ     216.5536
    Hexadecapole Moments (Debye-Ang^3)
      XXXX   -1302.8889   XXXY       8.2260   XXYY    -349.6477
      XYYY     -47.3379   YYYY    -141.8869   XXXZ    -276.5744
      XXYZ      17.7575   XYYZ    -210.0022   YYYZ      16.6231
      XXZZ    -321.1560   XYZZ     -48.0151   YYZZ    -396.3027
      XZZZ    -288.0163   YZZZ    -101.1058   ZZZZ   -1547.0656
 -----------------------------------------------------------------
 Calculating analytic gradient of the SCF energy
 Gradient of SCF Energy
            1           2           3           4           5           6
    1  -0.0090165   0.0026893  -0.0010206   0.0012509  -0.0001278  -0.0071626
    2   0.0018953   0.0016106  -0.0006974  -0.0001036   0.0003801  -0.0061819
    3   0.0034180  -0.0062028   0.0002245   0.0045163  -0.0016086  -0.0015926
            7           8           9          10          11          12
    1   0.0013694   0.0139477  -0.0093774   0.0039241  -0.0002901  -0.0043702
    2   0.0009683   0.0017634   0.0004118   0.0046749  -0.0004543  -0.0014430
    3  -0.0003271   0.0025887  -0.0108300   0.0074740  -0.0015905   0.0010122
           13          14          15          16
    1   0.0014432   0.0037602   0.0002422   0.0027383
    2   0.0002743   0.0015489   0.0003000  -0.0049474
    3  -0.0007565  -0.0055653   0.0011688   0.0080710
 Max gradient component =       1.395E-02
 RMS gradient           =       4.432E-03
 Gradient time:  CPU 1.99 s  wall 1.93 s
 Geometry Optimization Parameters
   NAtoms,    NIC,     NZ,  NCons,   NDum,   NFix, NCnnct, MaxDiis
       16     111       0       1       0       0       0       0

 Cartesian Hessian Update
 Hessian Updated using BFGS Update


** CONSTRAINED OPTIMIZATION IN DELOCALIZED INTERNAL COORDINATES **
   Searching for a Minimum

   Optimization Cycle:   2

                       Coordinates (Angstroms)
     ATOM                X               Y               Z
      1  S        -0.0310447949    0.0415252499    0.0417670357
      2  C         1.6960044178    0.0273827351   -0.0236487431
      3  H         2.2545683598    0.0426454600    0.9042737548
      4  C         2.2067538716   -0.0002458007   -1.3174034371
      5  H         3.2652018392   -0.0219786202   -1.5485058626
      6  C         1.1982704737    0.0083355282   -2.2859137203
      7  H         1.3859882952   -0.0034678647   -3.3537078864
      8  C        -0.0894108972    0.0356264202   -1.7217599885
      9  C        -1.3276132252    0.0233327840   -2.4169895840
     10  C        -1.5849624825    0.5472814889   -3.6962694198
     11  H        -0.8289901790    1.0139966106   -4.3177775225
     12  C        -2.9218300496    0.3966334990   -4.0775463979
     13  H        -3.3205764573    0.7353991212   -5.0264933076
     14  C        -3.6798725332   -0.2424284912   -3.1017066711
     15  H        -4.7320034782   -0.4961890441   -3.1469693410
     16  S        -2.7824029401   -0.6556453259   -1.6837590184
   Point Group: c1    Number of degrees of freedom:    42


   Energy is  -1104.566998084

              Constraints and their Current Values
                                        Value     Constraint
   Dihedral:        6   8   9  10      -30.000      -30.000
 Hessian Updated using BFGS Update

 41 Hessian modes will be used to form the next step
  Hessian Eigenvalues:
     0.041697    0.045000    0.045000    0.045000    0.045000    0.045001
     0.045002    0.045002    0.045003    0.045004    0.045012    0.045025
     0.159646    0.159946    0.159982    0.159992    0.160000    0.160601
     0.221034    0.221284    0.232461    0.237837    0.250000    0.279685
     0.294444    0.297217    0.307376    0.312568    0.354627    0.354810
     0.355110    0.355129    0.358189    0.358309    0.381244    0.404881
     0.429477    0.445839    0.463582    0.494184    0.497935

 Minimum Search - Taking Simple RFO Step
 Searching for Lamda that Minimizes Along All modes
 Value Taken    Lamda =  -0.00202709
 Step Taken.  Stepsize is  0.143348

                             Maximum     Tolerance    Cnvgd?
         Gradient           0.009916      0.000300      NO
         Displacement       0.082062      0.001200      NO
         Energy change     -0.006063      0.000001      NO


 New Cartesian Coordinates Obtained by Inverse Iteration

 Displacement from previous Coordinates is:  0.224545
 ----------------------------------------------------------------
             Standard Nuclear Orientation (Angstroms)
    I     Atom           X                Y                Z
 ----------------------------------------------------------------
    1      S      -0.0049406829     0.0189426953     0.0580026472
    2      C       1.7145015164     0.0164107188    -0.0175561752
    3      H       2.2886582516     0.0242132692     0.9018459120
    4      C       2.2083617846     0.0151808925    -1.3234301979
    5      H       3.2656807170    -0.0033702848    -1.5581462931
    6      C       1.1920897747     0.0360812690    -2.2776323860
    7      H       1.3645469095     0.0264693651    -3.3471786620
    8      C      -0.1035186145     0.0459578698    -1.7057620870
    9      C      -1.3305411241     0.0041038038    -2.4026017367
   10      C      -1.5821466500     0.5173745798    -3.6984244923
   11      H      -0.8158521057     0.9794991668    -4.3092499710
   12      C      -2.9144901542     0.3858841176    -4.0873436511
   13      H      -3.3089791078     0.7234340666    -5.0380576789
   14      C      -3.6973594376    -0.2306678190    -3.1096166934
   15      H      -4.7529506959    -0.4704689528    -3.1681464989
   16      S      -2.8149801611    -0.6368410077    -1.6891121458
 ----------------------------------------------------------------
 Nuclear Repulsion Energy =   631.7952474765 hartrees
 There are       43 alpha and       42 beta electrons
 Applying Cartesian multipole field
    Component          Value
    ---------          -----
     (2,0,0)        1.00000E-11
     (0,2,0)        2.00000E-11
     (0,0,2)       -3.00000E-11
 Nucleus-field energy     =    -0.0000000332 hartrees
 Requested basis set is 6-31++G(d,p)
 There are 76 shells and 234 basis functions
 A cutoff of  1.0D-12 yielded   2533 shell pairs
 There are     24893 function pairs

 Q-Chem warning in module /project/projectdirs/jcesr/qchem/qc44/cnl_qc441/compile/cori/qc_src/libqints/qchem/aobasis.C, line 68:

 Using reconstructed effective core potential

 Smallest overlap matrix eigenvalue = 1.04E-06
 No. of orbitals has changed due to linear dependencies.  Generating new SCF guess.
 Guess from superposition of atomic densities
 Warning:  Energy on first SCF cycle will be non-variational
 An unrestricted hybrid HF-DFT SCF calculation will be
 performed using Pulay DIIS extrapolation
 Exchange:     0.2000 Hartree-Fock + 0.0800 Slater + 0.7200 B88
 Correlation:  0.1900 VWN1RPA + 0.8100 LYP
 Using SG-1 standard quadrature grid
 SCF converges when DIIS error is below 1.0E-08
 Geometry optimization detected.  Setting ReadMinima to 0
 Setting SaveMinima to 0
 Inaccurate integrated density:
   Number of electrons =    85
   Numerical integral  =    85.999895962553
   Relative error      =     1.1763481912 %
 ---------------------------------------
  Cycle       Energy         DIIS Error
 ---------------------------------------
    1   -1107.1665675221      4.38E-02
    2   -1104.4428802576      3.96E-03
    3   -1104.1635292998      6.94E-03
    4   -1104.5634751430      7.13E-04
    5   -1104.5660736433      5.01E-04
    6   -1104.5677994502      2.15E-04
    7   -1104.5682339368      6.22E-05
    8   -1104.5683015925      1.97E-05
    9   -1104.5683337233      1.07E-05
   10   -1104.5683561502      4.28E-06
   11   -1104.5683591397      3.51E-06
   12   -1104.5683598999      1.22E-06
   13   -1104.5683600295      4.89E-07
   14   -1104.5683600399      1.95E-07
   15   -1104.5683600421      6.63E-08
   16   -1104.5683600422      4.27E-08
   17   -1104.5683600427      1.79E-08
   18   -1104.5683600417      4.71E-09 Convergence criterion met
 ---------------------------------------
 <S^2> = 0.7679
 SCF time:  CPU 12.09 s  wall 11.50 s
 SCF   energy in the final basis set = -1104.5683600417
 Total energy in the final basis set = -1104.5683600417
 
 --------------------------------------------------------------
 
                    Orbital Energies (a.u.)
 --------------------------------------------------------------
 
 Alpha MOs
 -- Occupied --
-89.098 -89.098 -10.432 -10.431 -10.418 -10.418 -10.393 -10.393
-10.379 -10.379  -8.157  -8.157  -6.121  -6.121  -6.117  -6.117
 -6.114  -6.114  -1.085  -1.060  -0.958  -0.932  -0.921  -0.880
 -0.788  -0.756  -0.727  -0.712  -0.701  -0.648  -0.595  -0.593
 -0.589  -0.584  -0.578  -0.555  -0.549  -0.537  -0.522  -0.467
 -0.440  -0.437  -0.394
 -- Virtual --
 -0.245  -0.188  -0.167  -0.141  -0.128  -0.127  -0.120  -0.106
 -0.099  -0.096  -0.089  -0.084  -0.078  -0.072  -0.070  -0.061
 -0.051  -0.043  -0.039  -0.029  -0.021  -0.020  -0.014  -0.007
 -0.006   0.003   0.009   0.012   0.012   0.016   0.016   0.026
  0.029   0.030   0.038   0.040   0.049   0.052   0.055   0.056
  0.060   0.068   0.075   0.080   0.091   0.093   0.096   0.104
  0.110   0.121   0.125   0.133   0.142   0.147   0.149   0.153
  0.176   0.180   0.181   0.193   0.210   0.223   0.232   0.239
  0.284   0.288   0.310   0.345   0.375   0.376   0.400   0.403
  0.418   0.442   0.455   0.473   0.481   0.489   0.496   0.503
  0.521   0.543   0.557   0.557   0.558   0.572   0.587   0.591
  0.620   0.634   0.645   0.660   0.675   0.710   0.750   0.767
  0.777   0.779   0.808   0.808   0.830   0.834   0.837   0.838
  0.858   0.869   0.885   0.904   0.913   0.922   0.940   0.964
  0.975   1.001   1.025   1.058   1.088   1.094   1.162   1.165
  1.175   1.178   1.192   1.196   1.272   1.307   1.313   1.370
  1.407   1.473   1.509   1.531   1.624   1.655   1.715   1.721
  1.749   1.757   1.798   1.805   1.835   1.838   1.893   1.894
  1.939   1.951   2.000   2.004   2.050   2.069   2.110   2.111
  2.198   2.200   2.241   2.259   2.290   2.302   2.329   2.334
  2.353   2.358   2.397   2.404   2.419   2.493   2.518   2.541
  2.583   2.619   2.683   2.740   2.782   2.968   3.028   3.108
  3.109   3.221   3.250   3.539   3.581   3.767   3.833   4.059
  4.122   4.125   4.157   4.223   4.350   4.471   4.547
 
 Beta MOs
 -- Occupied --
-89.098 -89.098 -10.430 -10.429 -10.414 -10.414 -10.390 -10.390
-10.379 -10.379  -8.157  -8.157  -6.122  -6.122  -6.118  -6.118
 -6.115  -6.114  -1.079  -1.054  -0.951  -0.930  -0.918  -0.869
 -0.783  -0.752  -0.723  -0.709  -0.700  -0.645  -0.593  -0.586
 -0.582  -0.581  -0.574  -0.546  -0.538  -0.536  -0.520  -0.441
 -0.436  -0.433
 -- Virtual --
 -0.328  -0.224  -0.180  -0.156  -0.131  -0.126  -0.126  -0.113
 -0.106  -0.098  -0.092  -0.084  -0.083  -0.077  -0.071  -0.069
 -0.059  -0.049  -0.042  -0.038  -0.028  -0.021  -0.018  -0.013
 -0.006  -0.005   0.004   0.010   0.013   0.014   0.017   0.018
  0.027   0.030   0.031   0.040   0.041   0.050   0.054   0.056
  0.057   0.061   0.069   0.076   0.082   0.092   0.094   0.097
  0.106   0.110   0.121   0.125   0.134   0.144   0.148   0.150
  0.155   0.179   0.181   0.183   0.195   0.211   0.225   0.234
  0.241   0.285   0.290   0.311   0.345   0.375   0.379   0.400
  0.405   0.420   0.443   0.455   0.476   0.493   0.494   0.501
  0.511   0.523   0.546   0.558   0.560   0.563   0.575   0.593
  0.595   0.621   0.636   0.651   0.667   0.680   0.712   0.751
  0.770   0.780   0.782   0.810   0.811   0.834   0.836   0.838
  0.839   0.859   0.870   0.887   0.906   0.915   0.923   0.940
  0.969   0.979   1.006   1.030   1.064   1.090   1.099   1.166
  1.169   1.180   1.187   1.199   1.199   1.276   1.312   1.318
  1.378   1.414   1.480   1.524   1.543   1.631   1.658   1.719
  1.724   1.752   1.760   1.804   1.811   1.839   1.844   1.898
  1.899   1.947   1.960   2.012   2.014   2.062   2.075   2.114
  2.115   2.202   2.204   2.246   2.263   2.294   2.303   2.336
  2.338   2.356   2.363   2.401   2.409   2.424   2.495   2.522
  2.546   2.586   2.624   2.686   2.742   2.785   2.969   3.029
  3.108   3.109   3.223   3.252   3.540   3.583   3.767   3.833
  4.065   4.128   4.129   4.160   4.230   4.357   4.475   4.551
 --------------------------------------------------------------
 
          Ground-State Mulliken Net Atomic Charges

     Atom                 Charge (a.u.)    Spin (a.u.)
  --------------------------------------------------------
      1 S                     0.044273      -0.051836
      2 C                     0.038420       0.328621
      3 H                     0.245849      -0.017505
      4 C                    -0.355539      -0.042101
      5 H                     0.171403       0.001213
      6 C                     0.306901       0.156535
      7 H                     0.167430      -0.009344
      8 C                    -0.119915       0.134364
      9 C                    -0.115044       0.134881
     10 C                     0.305627       0.156180
     11 H                     0.167375      -0.009343
     12 C                    -0.355137      -0.041914
     13 H                     0.171415       0.001211
     14 C                     0.037578       0.328246
     15 H                     0.245846      -0.017495
     16 S                     0.043518      -0.051713
  --------------------------------------------------------
  Sum of atomic charges =     1.000000
  Sum of spin   charges =     1.000000

 -----------------------------------------------------------------
                    Cartesian Multipole Moments
 -----------------------------------------------------------------
    Charge (ESU x 10^10)
                 4.8032
    Dipole Moment (Debye)
         X      -3.2460      Y       0.2150      Z     -10.2225
       Tot      10.7276
    Quadrupole Moments (Debye-Ang)
        XX     -29.5865     XY       1.6925     YY     -71.6629
        XZ      21.4632     YZ      -3.4033     ZZ     -27.8315
    Octopole Moments (Debye-Ang^2)
       XXX      85.8323    XXY      -7.8243    XYY      57.2275
       YYY       8.1655    XXZ      21.8342    XYZ       1.7514
       YYZ     128.0151    XZZ     -19.1499    YZZ      24.2013
       ZZZ     216.7395
    Hexadecapole Moments (Debye-Ang^3)
      XXXX   -1305.3805   XXXY       6.0174   XXYY    -353.4849
      XYYY     -48.3946   YYYY    -138.3253   XXXZ    -270.6706
      XXYZ      17.1616   XYYZ    -212.4526   YYYZ      17.2553
      XXZZ    -319.6824   XYZZ     -46.8732   YYZZ    -398.0936
      XZZZ    -288.8418   YZZZ     -98.3648   ZZZZ   -1552.9981
 -----------------------------------------------------------------
 Calculating analytic gradient of the SCF energy
 Gradient of SCF Energy
            1           2           3           4           5           6
    1  -0.0022993   0.0009823  -0.0000815   0.0005801  -0.0001649  -0.0009347
    2   0.0012368   0.0010540  -0.0003624  -0.0001308   0.0000858  -0.0049792
    3   0.0017109  -0.0003803   0.0004411   0.0000790  -0.0004840  -0.0010618
            7           8           9          10          11          12
    1   0.0005608   0.0007308   0.0009019   0.0002932  -0.0003697  -0.0004271
    2   0.0003658   0.0045847  -0.0038265   0.0046913  -0.0002735   0.0001948
    3   0.0001648  -0.0003217  -0.0025340   0.0022158  -0.0005061  -0.0003655
           13          14          15          16
    1   0.0004982  -0.0000465  -0.0003827   0.0001590
    2   0.0000852  -0.0005746   0.0001203  -0.0022718
    3  -0.0001179  -0.0013968   0.0003939   0.0021628
 Max gradient component =       4.979E-03
 RMS gradient           =       1.609E-03
 Gradient time:  CPU 1.92 s  wall 1.94 s
 Geometry Optimization Parameters
   NAtoms,    NIC,     NZ,  NCons,   NDum,   NFix, NCnnct, MaxDiis
       16     111       0       1       0       0       0       0

 Cartesian Hessian Update
 Hessian Updated using BFGS Update


** CONSTRAINED OPTIMIZATION IN DELOCALIZED INTERNAL COORDINATES **
   Searching for a Minimum

   Optimization Cycle:   3

                       Coordinates (Angstroms)
     ATOM                X               Y               Z
      1  S        -0.0049406829    0.0189426953    0.0580026472
      2  C         1.7145015164    0.0164107188   -0.0175561752
      3  H         2.2886582516    0.0242132692    0.9018459120
      4  C         2.2083617846    0.0151808925   -1.3234301979
      5  H         3.2656807170   -0.0033702848   -1.5581462931
      6  C         1.1920897747    0.0360812690   -2.2776323860
      7  H         1.3645469095    0.0264693651   -3.3471786620
      8  C        -0.1035186145    0.0459578698   -1.7057620870
      9  C        -1.3305411241    0.0041038038   -2.4026017367
     10  C        -1.5821466500    0.5173745798   -3.6984244923
     11  H        -0.8158521057    0.9794991668   -4.3092499710
     12  C        -2.9144901542    0.3858841176   -4.0873436511
     13  H        -3.3089791078    0.7234340666   -5.0380576789
     14  C        -3.6973594376   -0.2306678190   -3.1096166934
     15  H        -4.7529506959   -0.4704689528   -3.1681464989
     16  S        -2.8149801611   -0.6368410077   -1.6891121458
   Point Group: c1    Number of degrees of freedom:    42


   Energy is  -1104.568360042

              Constraints and their Current Values
                                        Value     Constraint
   Dihedral:        6   8   9  10      -30.000      -30.000
 Hessian Updated using BFGS Update

 41 Hessian modes will be used to form the next step
  Hessian Eigenvalues:
     0.028782    0.045000    0.045000    0.045000    0.045000    0.045001
     0.045002    0.045002    0.045004    0.045004    0.045012    0.045270
     0.156976    0.159947    0.159992    0.160000    0.160009    0.160027
     0.220193    0.221283    0.237835    0.239830    0.250000    0.290801
     0.294474    0.295714    0.302922    0.312568    0.354777    0.354973
     0.355129    0.355182    0.358272    0.358752    0.379917    0.404880
     0.431080    0.452888    0.463582    0.491646    0.497934

 Minimum Search - Taking Simple RFO Step
 Searching for Lamda that Minimizes Along All modes
 Value Taken    Lamda =  -0.00050467
 Step Taken.  Stepsize is  0.124913

                             Maximum     Tolerance    Cnvgd?
         Gradient           0.002632      0.000300      NO
         Displacement       0.092288      0.001200      NO
         Energy change     -0.001362      0.000001      NO


 New Cartesian Coordinates Obtained by Inverse Iteration

 Displacement from previous Coordinates is:  0.183083
 ----------------------------------------------------------------
             Standard Nuclear Orientation (Angstroms)
    I     Atom           X                Y                Z
 ----------------------------------------------------------------
    1      S       0.0016401113    -0.0073648033     0.0587883050
    2      C       1.7163219507     0.0000428674    -0.0169944358
    3      H       2.2942612893    -0.0028988039     0.8995085998
    4      C       2.2082708383     0.0295069388    -1.3239126060
    5      H       3.2664867701     0.0172354869    -1.5551937152
    6      C       1.1914402669     0.0632000344    -2.2737131557
    7      H       1.3570944413     0.0621152811    -3.3444330582
    8      C      -0.1076781489     0.0578878035    -1.7017763704
    9      C      -1.3289447849    -0.0093341719    -2.4022032748
   10      C      -1.5790115079     0.4911985812    -3.7067920564
   11      H      -0.8061532916     0.9447005956    -4.3159618849
   12      C      -2.9109092429     0.3733844575    -4.0930396223
   13      H      -3.3073667323     0.7044003238    -5.0452700217
   14      C      -3.7023166043    -0.2156962349    -3.1044338532
   15      H      -4.7600869454    -0.4435263616    -3.1629352830
   16      S      -2.8249681896    -0.6126482449    -1.6840476772
 ----------------------------------------------------------------
 Nuclear Repulsion Energy =   632.0202102408 hartrees
 There are       43 alpha and       42 beta electrons
 Applying Cartesian multipole field
    Component          Value
    ---------          -----
     (2,0,0)        1.00000E-11
     (0,2,0)        2.00000E-11
     (0,0,2)       -3.00000E-11
 Nucleus-field energy     =    -0.0000000332 hartrees
 Requested basis set is 6-31++G(d,p)
 There are 76 shells and 234 basis functions
 A cutoff of  1.0D-12 yielded   2533 shell pairs
 There are     24893 function pairs

 Q-Chem warning in module /project/projectdirs/jcesr/qchem/qc44/cnl_qc441/compile/cori/qc_src/libqints/qchem/aobasis.C, line 68:

 Using reconstructed effective core potential

 Smallest overlap matrix eigenvalue = 1.30E-06
 Guess MOs from SCF MO coefficient file
 Reading MOs from coefficient file
 Reading MOs from coefficient file
 An unrestricted hybrid HF-DFT SCF calculation will be
 performed using Pulay DIIS extrapolation
 Exchange:     0.2000 Hartree-Fock + 0.0800 Slater + 0.7200 B88
 Correlation:  0.1900 VWN1RPA + 0.8100 LYP
 Using SG-1 standard quadrature grid
 SCF converges when DIIS error is below 1.0E-08
 Geometry optimization detected.  Setting ReadMinima to 0
 Setting SaveMinima to 0
 ---------------------------------------
  Cycle       Energy         DIIS Error
 ---------------------------------------
    1   -1104.5511796591      1.03E-03
    2   -1104.5684146792      1.63E-04
    3   -1104.5677089958      3.39E-04
    4   -1104.5686601672      4.24E-05
    5   -1104.5686736214      1.42E-05
    6   -1104.5686749339      6.90E-06
    7   -1104.5686753274      1.45E-06
    8   -1104.5686753476      6.13E-07
    9   -1104.5686753506      1.07E-07
   10   -1104.5686753539      5.89E-08
   11   -1104.5686753524      4.43E-08
   12   -1104.5686753532      2.75E-08
   13   -1104.5686753536      1.26E-08
   14   -1104.5686753547      5.02E-09 Convergence criterion met
 ---------------------------------------
 <S^2> = 0.7681
 SCF time:  CPU 9.54 s  wall 9.00 s
 SCF   energy in the final basis set = -1104.5686753547
 Total energy in the final basis set = -1104.5686753547
 
 --------------------------------------------------------------
 
                    Orbital Energies (a.u.)
 --------------------------------------------------------------
 
 Alpha MOs
 -- Occupied --
-89.098 -89.098 -10.432 -10.431 -10.418 -10.418 -10.393 -10.393
-10.379 -10.379  -8.157  -8.157  -6.122  -6.121  -6.118  -6.117
 -6.114  -6.114  -1.086  -1.061  -0.958  -0.933  -0.921  -0.880
 -0.788  -0.756  -0.727  -0.711  -0.701  -0.649  -0.595  -0.593
 -0.590  -0.585  -0.577  -0.555  -0.550  -0.537  -0.521  -0.468
 -0.441  -0.437  -0.393
 -- Virtual --
 -0.246  -0.186  -0.167  -0.142  -0.127  -0.126  -0.119  -0.106
 -0.100  -0.097  -0.089  -0.083  -0.078  -0.071  -0.070  -0.060
 -0.051  -0.044  -0.039  -0.029  -0.021  -0.020  -0.014  -0.007
 -0.006   0.003   0.010   0.011   0.013   0.016   0.017   0.025
  0.029   0.030   0.038   0.040   0.049   0.052   0.055   0.056
  0.060   0.068   0.076   0.080   0.090   0.092   0.097   0.104
  0.109   0.119   0.123   0.135   0.142   0.148   0.150   0.153
  0.177   0.179   0.181   0.195   0.210   0.222   0.233   0.239
  0.283   0.286   0.310   0.344   0.375   0.376   0.403   0.403
  0.423   0.443   0.453   0.477   0.482   0.488   0.494   0.506
  0.519   0.541   0.557   0.557   0.557   0.571   0.586   0.591
  0.619   0.635   0.643   0.660   0.672   0.710   0.750   0.766
  0.776   0.782   0.806   0.807   0.829   0.833   0.838   0.839
  0.857   0.868   0.882   0.908   0.913   0.924   0.940   0.964
  0.978   1.002   1.025   1.053   1.086   1.095   1.160   1.160
  1.174   1.178   1.194   1.201   1.269   1.308   1.310   1.374
  1.412   1.465   1.511   1.530   1.623   1.655   1.716   1.722
  1.750   1.759   1.799   1.812   1.832   1.836   1.890   1.895
  1.939   1.947   1.999   2.002   2.052   2.070   2.112   2.114
  2.198   2.200   2.241   2.256   2.290   2.303   2.330   2.337
  2.354   2.355   2.398   2.406   2.420   2.491   2.518   2.541
  2.582   2.618   2.684   2.741   2.780   2.969   3.029   3.108
  3.109   3.221   3.249   3.539   3.582   3.767   3.835   4.058
  4.120   4.125   4.156   4.223   4.350   4.472   4.546
 
 Beta MOs
 -- Occupied --
-89.098 -89.098 -10.430 -10.429 -10.413 -10.413 -10.390 -10.390
-10.379 -10.379  -8.157  -8.157  -6.122  -6.122  -6.118  -6.118
 -6.115  -6.115  -1.080  -1.055  -0.951  -0.930  -0.919  -0.869
 -0.783  -0.752  -0.722  -0.708  -0.700  -0.646  -0.593  -0.587
 -0.583  -0.581  -0.574  -0.547  -0.539  -0.536  -0.519  -0.442
 -0.437  -0.433
 -- Virtual --
 -0.327  -0.225  -0.179  -0.155  -0.131  -0.126  -0.125  -0.113
 -0.106  -0.099  -0.093  -0.084  -0.082  -0.077  -0.070  -0.069
 -0.058  -0.049  -0.043  -0.038  -0.028  -0.021  -0.018  -0.013
 -0.006  -0.005   0.004   0.011   0.012   0.015   0.018   0.018
  0.027   0.030   0.032   0.040   0.040   0.050   0.053   0.056
  0.058   0.062   0.069   0.077   0.082   0.091   0.093   0.098
  0.106   0.109   0.119   0.123   0.137   0.144   0.149   0.150
  0.154   0.179   0.180   0.183   0.197   0.211   0.225   0.234
  0.241   0.284   0.288   0.311   0.344   0.375   0.379   0.403
  0.405   0.425   0.444   0.454   0.480   0.493   0.494   0.499
  0.513   0.520   0.545   0.559   0.560   0.562   0.573   0.593
  0.595   0.621   0.638   0.649   0.667   0.677   0.712   0.752
  0.769   0.779   0.784   0.809   0.810   0.833   0.834   0.839
  0.840   0.859   0.869   0.884   0.910   0.915   0.925   0.941
  0.969   0.983   1.007   1.029   1.058   1.088   1.100   1.164
  1.165   1.179   1.188   1.201   1.204   1.273   1.313   1.315
  1.382   1.420   1.471   1.525   1.543   1.631   1.658   1.720
  1.724   1.753   1.762   1.805   1.817   1.836   1.842   1.894
  1.900   1.947   1.956   2.010   2.012   2.063   2.076   2.116
  2.118   2.202   2.204   2.247   2.261   2.294   2.304   2.336
  2.342   2.357   2.360   2.402   2.411   2.426   2.493   2.522
  2.546   2.585   2.624   2.687   2.743   2.782   2.970   3.030
  3.108   3.109   3.223   3.250   3.540   3.583   3.767   3.835
  4.064   4.128   4.128   4.159   4.230   4.356   4.475   4.549
 --------------------------------------------------------------
 
          Ground-State Mulliken Net Atomic Charges

     Atom                 Charge (a.u.)    Spin (a.u.)
  --------------------------------------------------------
      1 S                     0.043601      -0.053001
      2 C                     0.041672       0.329811
      3 H                     0.247731      -0.017643
      4 C                    -0.350158      -0.043203
      5 H                     0.171878       0.001368
      6 C                     0.285416       0.156389
      7 H                     0.164044      -0.009667
      8 C                    -0.105505       0.135895
      9 C                    -0.100231       0.136489
     10 C                     0.283992       0.155926
     11 H                     0.164004      -0.009670
     12 C                    -0.349800      -0.042983
     13 H                     0.171885       0.001363
     14 C                     0.040621       0.329434
     15 H                     0.247720      -0.017634
     16 S                     0.043129      -0.052872
  --------------------------------------------------------
  Sum of atomic charges =     1.000000
  Sum of spin   charges =     1.000000

 -----------------------------------------------------------------
                    Cartesian Multipole Moments
 -----------------------------------------------------------------
    Charge (ESU x 10^10)
                 4.8032
    Dipole Moment (Debye)
         X      -3.2578      Y       0.2094      Z     -10.2021
       Tot      10.7117
    Quadrupole Moments (Debye-Ang)
        XX     -29.4220     XY       1.5963     YY     -71.7698
        XZ      21.5321     YZ      -3.4747     ZZ     -27.9128
    Octopole Moments (Debye-Ang^2)
       XXX      85.0910    XXY      -7.0939    XYY      57.6107
       YYY       8.1881    XXZ      21.6594    XYZ       1.6189
       YYZ     128.3849    XZZ     -19.2946    YZZ      23.9452
       ZZZ     216.6117
    Hexadecapole Moments (Debye-Ang^3)
      XXXX   -1303.6880   XXXY       4.2138   XXYY    -354.8519
      XYYY     -47.6352   YYYY    -134.4732   XXXZ    -268.3840
      XXYZ      15.7236   XYYZ    -213.5401   YYYZ      19.0421
      XXZZ    -320.1292   XYZZ     -45.7798   YYZZ    -399.3429
      XZZZ    -288.0737   YZZZ     -95.3519   ZZZZ   -1552.4693
 -----------------------------------------------------------------
 Calculating analytic gradient of the SCF energy
 Gradient of SCF Energy
            1           2           3           4           5           6
    1   0.0008449  -0.0003719   0.0000321  -0.0004084   0.0000160   0.0014320
    2   0.0005286   0.0003415  -0.0000912   0.0001204  -0.0001051  -0.0043135
    3   0.0000803   0.0007608  -0.0000151  -0.0010719   0.0000916   0.0005886
            7           8           9          10          11          12
    1  -0.0000361  -0.0029406   0.0034936  -0.0022274  -0.0000466   0.0011208
    2  -0.0001242   0.0072268  -0.0069618   0.0039432   0.0000881   0.0002326
    3   0.0000510  -0.0003346  -0.0005951   0.0007851   0.0000887  -0.0001772
           13          14          15          16
    1  -0.0001055  -0.0003161  -0.0000237  -0.0004630
    2   0.0000606  -0.0006727   0.0000852  -0.0003584
    3   0.0000710   0.0004989   0.0000055  -0.0008275
 Max gradient component =       7.227E-03
 RMS gradient           =       1.885E-03
 Gradient time:  CPU 1.94 s  wall 1.93 s
 Geometry Optimization Parameters
   NAtoms,    NIC,     NZ,  NCons,   NDum,   NFix, NCnnct, MaxDiis
       16     111       0       1       0       0       0       0

 Cartesian Hessian Update
 Hessian Updated using BFGS Update


** CONSTRAINED OPTIMIZATION IN DELOCALIZED INTERNAL COORDINATES **
   Searching for a Minimum

   Optimization Cycle:   4

                       Coordinates (Angstroms)
     ATOM                X               Y               Z
      1  S         0.0016401113   -0.0073648033    0.0587883050
      2  C         1.7163219507    0.0000428674   -0.0169944358
      3  H         2.2942612893   -0.0028988039    0.8995085998
      4  C         2.2082708383    0.0295069388   -1.3239126060
      5  H         3.2664867701    0.0172354869   -1.5551937152
      6  C         1.1914402669    0.0632000344   -2.2737131557
      7  H         1.3570944413    0.0621152811   -3.3444330582
      8  C        -0.1076781489    0.0578878035   -1.7017763704
      9  C        -1.3289447849   -0.0093341719   -2.4022032748
     10  C        -1.5790115079    0.4911985812   -3.7067920564
     11  H        -0.8061532916    0.9447005956   -4.3159618849
     12  C        -2.9109092429    0.3733844575   -4.0930396223
     13  H        -3.3073667323    0.7044003238   -5.0452700217
     14  C        -3.7023166043   -0.2156962349   -3.1044338532
     15  H        -4.7600869454   -0.4435263616   -3.1629352830
     16  S        -2.8249681896   -0.6126482449   -1.6840476772
   Point Group: c1    Number of degrees of freedom:    42


   Energy is  -1104.568675355

              Constraints and their Current Values
                                        Value     Constraint
   Dihedral:        6   8   9  10      -30.000      -30.000
 Hessian Updated using BFGS Update

 41 Hessian modes will be used to form the next step
  Hessian Eigenvalues:
     0.018500    0.045000    0.045000    0.045000    0.045001    0.045002
     0.045002    0.045004    0.045004    0.045012    0.045043    0.045535
     0.159847    0.159947    0.159985    0.159992    0.160000    0.160902
     0.221283    0.222060    0.237838    0.243948    0.250000    0.293749
     0.294556    0.301739    0.312567    0.331892    0.354775    0.355011
     0.355128    0.355152    0.358271    0.358733    0.378407    0.404884
     0.430469    0.455171    0.463582    0.489609    0.497934

 Minimum Search - Taking Simple RFO Step
 Searching for Lamda that Minimizes Along All modes
 Value Taken    Lamda =  -0.00011805
 Step Taken.  Stepsize is  0.071571

                             Maximum     Tolerance    Cnvgd?
         Gradient           0.001562      0.000300      NO
         Displacement       0.060419      0.001200      NO
         Energy change     -0.000315      0.000001      NO


 New Cartesian Coordinates Obtained by Inverse Iteration

 Displacement from previous Coordinates is:  0.122565
 ----------------------------------------------------------------
             Standard Nuclear Orientation (Angstroms)
    I     Atom           X                Y                Z
 ----------------------------------------------------------------
    1      S      -0.0000963649    -0.0238954131     0.0559399728
    2      C       1.7143000620    -0.0118128157    -0.0167197185
    3      H       2.2911462879    -0.0227013697     0.9003841067
    4      C       2.2086601029     0.0372068662    -1.3218469474
    5      H       3.2674546647     0.0309178552    -1.5506447046
    6      C       1.1928373008     0.0793054197    -2.2730104412
    7      H       1.3587573572     0.0880383194    -3.3437131778
    8      C      -0.1069578422     0.0655926527    -1.7028755650
    9      C      -1.3267952781    -0.0156612875    -2.4062904314
   10      C      -1.5768260080     0.4767740451    -3.7138972820
   11      H      -0.8019876173     0.9216276932    -4.3269943661
   12      C      -2.9111177110     0.3657154830    -4.0954851525
   13      H      -3.3086400615     0.6906049027    -5.0493648365
   14      C      -3.7040000655    -0.2056784982    -3.0980908356
   15      H      -4.7634089320    -0.4267682860    -3.1522694228
   16      S      -2.8252456749    -0.5970618170    -1.6775313080
 ----------------------------------------------------------------
 Nuclear Repulsion Energy =   632.2385763094 hartrees
 There are       43 alpha and       42 beta electrons
 Applying Cartesian multipole field
    Component          Value
    ---------          -----
     (2,0,0)        1.00000E-11
     (0,2,0)        2.00000E-11
     (0,0,2)       -3.00000E-11
 Nucleus-field energy     =    -0.0000000333 hartrees
 Requested basis set is 6-31++G(d,p)
 There are 76 shells and 234 basis functions
 A cutoff of  1.0D-12 yielded   2533 shell pairs
 There are     24893 function pairs

 Q-Chem warning in module /project/projectdirs/jcesr/qchem/qc44/cnl_qc441/compile/cori/qc_src/libqints/qchem/aobasis.C, line 68:

 Using reconstructed effective core potential

 Smallest overlap matrix eigenvalue = 1.50E-06
 Guess MOs from SCF MO coefficient file
 Reading MOs from coefficient file
 Reading MOs from coefficient file
 An unrestricted hybrid HF-DFT SCF calculation will be
 performed using Pulay DIIS extrapolation
 Exchange:     0.2000 Hartree-Fock + 0.0800 Slater + 0.7200 B88
 Correlation:  0.1900 VWN1RPA + 0.8100 LYP
 Using SG-1 standard quadrature grid
 SCF converges when DIIS error is below 1.0E-08
 Geometry optimization detected.  Setting ReadMinima to 0
 Setting SaveMinima to 0
 ---------------------------------------
  Cycle       Energy         DIIS Error
 ---------------------------------------
    1   -1104.5593135780      5.59E-04
    2   -1104.5686488725      1.06E-04
    3   -1104.5683003046      2.34E-04
    4   -1104.5687499602      1.87E-05
    5   -1104.5687526253      5.86E-06
    6   -1104.5687528086      3.90E-06
    7   -1104.5687529333      8.04E-07
    8   -1104.5687529394      3.42E-07
    9   -1104.5687529389      6.31E-08
   10   -1104.5687529400      2.81E-08
   11   -1104.5687529408      1.75E-08
   12   -1104.5687529399      9.08E-09 Convergence criterion met
 ---------------------------------------
 <S^2> = 0.7682
 SCF time:  CPU 8.09 s  wall 8.59 s
 SCF   energy in the final basis set = -1104.5687529399
 Total energy in the final basis set = -1104.5687529399
 
 --------------------------------------------------------------
 
                    Orbital Energies (a.u.)
 --------------------------------------------------------------
 
 Alpha MOs
 -- Occupied --
-89.098 -89.098 -10.432 -10.431 -10.418 -10.418 -10.393 -10.393
-10.379 -10.379  -8.157  -8.157  -6.121  -6.121  -6.118  -6.117
 -6.114  -6.114  -1.086  -1.061  -0.958  -0.933  -0.921  -0.880
 -0.788  -0.756  -0.727  -0.711  -0.701  -0.649  -0.595  -0.594
 -0.590  -0.585  -0.577  -0.555  -0.550  -0.537  -0.521  -0.469
 -0.441  -0.437  -0.393
 -- Virtual --
 -0.247  -0.185  -0.167  -0.142  -0.126  -0.126  -0.118  -0.106
 -0.100  -0.097  -0.089  -0.083  -0.078  -0.071  -0.070  -0.060
 -0.051  -0.045  -0.040  -0.029  -0.021  -0.020  -0.013  -0.007
 -0.006   0.003   0.010   0.011   0.014   0.016   0.018   0.025
  0.030   0.031   0.038   0.039   0.049   0.052   0.055   0.057
  0.061   0.068   0.076   0.080   0.090   0.091   0.097   0.104
  0.108   0.118   0.122   0.137   0.141   0.148   0.150   0.153
  0.177   0.179   0.181   0.196   0.210   0.223   0.233   0.239
  0.283   0.284   0.310   0.344   0.376   0.376   0.402   0.404
  0.424   0.443   0.452   0.478   0.482   0.488   0.494   0.508
  0.518   0.538   0.557   0.557   0.557   0.571   0.586   0.591
  0.619   0.636   0.643   0.660   0.671   0.710   0.750   0.766
  0.775   0.783   0.805   0.805   0.828   0.832   0.838   0.841
  0.856   0.868   0.880   0.909   0.914   0.925   0.940   0.965
  0.979   1.002   1.025   1.051   1.085   1.094   1.159   1.160
  1.172   1.178   1.195   1.202   1.265   1.307   1.312   1.375
  1.417   1.459   1.511   1.530   1.623   1.655   1.716   1.722
  1.750   1.759   1.800   1.815   1.831   1.835   1.887   1.896
  1.938   1.944   1.998   2.000   2.053   2.069   2.112   2.115
  2.198   2.200   2.241   2.255   2.290   2.303   2.330   2.338
  2.354   2.354   2.398   2.408   2.420   2.489   2.518   2.541
  2.582   2.616   2.684   2.740   2.779   2.969   3.029   3.108
  3.109   3.221   3.249   3.538   3.581   3.766   3.836   4.058
  4.119   4.124   4.155   4.223   4.349   4.471   4.545
 
 Beta MOs
 -- Occupied --
-89.098 -89.098 -10.430 -10.429 -10.413 -10.413 -10.391 -10.391
-10.379 -10.379  -8.157  -8.157  -6.122  -6.122  -6.118  -6.118
 -6.115  -6.115  -1.080  -1.055  -0.951  -0.931  -0.919  -0.870
 -0.783  -0.753  -0.722  -0.708  -0.700  -0.646  -0.593  -0.587
 -0.583  -0.581  -0.574  -0.547  -0.539  -0.536  -0.519  -0.442
 -0.437  -0.433
 -- Virtual --
 -0.327  -0.225  -0.179  -0.155  -0.131  -0.126  -0.124  -0.113
 -0.106  -0.099  -0.094  -0.083  -0.082  -0.077  -0.070  -0.069
 -0.058  -0.049  -0.044  -0.038  -0.028  -0.021  -0.018  -0.013
 -0.006  -0.006   0.004   0.011   0.012   0.015   0.018   0.018
  0.026   0.031   0.032   0.040   0.040   0.050   0.053   0.055
  0.058   0.062   0.069   0.077   0.082   0.090   0.091   0.098
  0.106   0.109   0.118   0.122   0.139   0.144   0.149   0.151
  0.154   0.179   0.180   0.183   0.198   0.211   0.225   0.234
  0.241   0.284   0.286   0.312   0.344   0.376   0.379   0.404
  0.404   0.426   0.444   0.453   0.482   0.493   0.494   0.498
  0.515   0.519   0.543   0.558   0.559   0.562   0.572   0.593
  0.595   0.621   0.639   0.648   0.667   0.676   0.712   0.752
  0.769   0.779   0.785   0.808   0.808   0.831   0.833   0.839
  0.842   0.858   0.869   0.883   0.911   0.915   0.926   0.941
  0.969   0.984   1.007   1.029   1.056   1.088   1.098   1.163
  1.164   1.177   1.188   1.201   1.204   1.270   1.313   1.317
  1.383   1.425   1.465   1.525   1.543   1.631   1.657   1.720
  1.724   1.752   1.762   1.806   1.820   1.835   1.840   1.892
  1.901   1.947   1.954   2.008   2.011   2.064   2.076   2.116
  2.120   2.202   2.204   2.247   2.260   2.294   2.304   2.336
  2.343   2.357   2.358   2.401   2.413   2.426   2.491   2.522
  2.546   2.585   2.622   2.686   2.742   2.781   2.970   3.030
  3.108   3.109   3.222   3.250   3.540   3.583   3.767   3.837
  4.064   4.127   4.128   4.158   4.230   4.356   4.475   4.549
 --------------------------------------------------------------
 
          Ground-State Mulliken Net Atomic Charges

     Atom                 Charge (a.u.)    Spin (a.u.)
  --------------------------------------------------------
      1 S                     0.040194      -0.053742
      2 C                     0.042942       0.330154
      3 H                     0.248831      -0.017633
      4 C                    -0.344874      -0.043731
      5 H                     0.172056       0.001429
      6 C                     0.272073       0.157155
      7 H                     0.162146      -0.009822
      8 C                    -0.094956       0.136186
      9 C                    -0.089245       0.136716
     10 C                     0.270853       0.156677
     11 H                     0.162106      -0.009830
     12 C                    -0.344612      -0.043522
     13 H                     0.172057       0.001425
     14 C                     0.041911       0.329782
     15 H                     0.248821      -0.017622
     16 S                     0.039698      -0.053621
  --------------------------------------------------------
  Sum of atomic charges =     1.000000
  Sum of spin   charges =     1.000000

 -----------------------------------------------------------------
                    Cartesian Multipole Moments
 -----------------------------------------------------------------
    Charge (ESU x 10^10)
                 4.8032
    Dipole Moment (Debye)
         X      -3.2583      Y       0.2093      Z     -10.2009
       Tot      10.7107
    Quadrupole Moments (Debye-Ang)
        XX     -29.3876     XY       1.5361     YY     -71.8470
        XZ      21.4923     YZ      -3.5491     ZZ     -27.8846
    Octopole Moments (Debye-Ang^2)
       XXX      84.8148    XXY      -6.6279    XYY      57.8551
       YYY       8.1764    XXZ      21.7882    XYZ       1.5451
       YYZ     128.6540    XZZ     -19.1422    YZZ      23.8843
       ZZZ     216.1706
    Hexadecapole Moments (Debye-Ang^3)
      XXXX   -1301.8508   XXXY       3.4781   XXYY    -355.3447
      XYYY     -46.7025   YYYY    -132.2967   XXXZ    -267.8909
      XXYZ      14.7040   XYYZ    -213.9881   YYYZ      20.4464
      XXZZ    -321.0333   XYZZ     -45.0469   YYZZ    -400.1528
      XZZZ    -287.4780   YZZZ     -93.6359   ZZZZ   -1549.4177
 -----------------------------------------------------------------
 Calculating analytic gradient of the SCF energy
 Gradient of SCF Energy
            1           2           3           4           5           6
    1   0.0009600  -0.0005906   0.0000754  -0.0001564   0.0000339   0.0011293
    2   0.0001361  -0.0000607   0.0000400   0.0001989  -0.0001209  -0.0042024
    3  -0.0003107   0.0006084  -0.0000662  -0.0006386   0.0001747   0.0005185
            7           8           9          10          11          12
    1  -0.0002034  -0.0022367   0.0028470  -0.0019629   0.0000784   0.0006436
    2  -0.0002736   0.0088608  -0.0085651   0.0038092   0.0002149   0.0000544
    3  -0.0000316   0.0004141  -0.0014587   0.0009657   0.0002482  -0.0002309
           13          14          15          16
    1  -0.0001894  -0.0001656   0.0000179  -0.0002806
    2   0.0000439  -0.0003225   0.0000018   0.0001850
    3   0.0001009   0.0007742  -0.0001026  -0.0009653
 Max gradient component =       8.861E-03
 RMS gradient           =       2.095E-03
 Gradient time:  CPU 1.99 s  wall 1.98 s
 Geometry Optimization Parameters
   NAtoms,    NIC,     NZ,  NCons,   NDum,   NFix, NCnnct, MaxDiis
       16     111       0       1       0       0       0       0

 Cartesian Hessian Update
 Hessian Updated using BFGS Update


** CONSTRAINED OPTIMIZATION IN DELOCALIZED INTERNAL COORDINATES **
   Searching for a Minimum

   Optimization Cycle:   5

                       Coordinates (Angstroms)
     ATOM                X               Y               Z
      1  S        -0.0000963649   -0.0238954131    0.0559399728
      2  C         1.7143000620   -0.0118128157   -0.0167197185
      3  H         2.2911462879   -0.0227013697    0.9003841067
      4  C         2.2086601029    0.0372068662   -1.3218469474
      5  H         3.2674546647    0.0309178552   -1.5506447046
      6  C         1.1928373008    0.0793054197   -2.2730104412
      7  H         1.3587573572    0.0880383194   -3.3437131778
      8  C        -0.1069578422    0.0655926527   -1.7028755650
      9  C        -1.3267952781   -0.0156612875   -2.4062904314
     10  C        -1.5768260080    0.4767740451   -3.7138972820
     11  H        -0.8019876173    0.9216276932   -4.3269943661
     12  C        -2.9111177110    0.3657154830   -4.0954851525
     13  H        -3.3086400615    0.6906049027   -5.0493648365
     14  C        -3.7040000655   -0.2056784982   -3.0980908356
     15  H        -4.7634089320   -0.4267682860   -3.1522694228
     16  S        -2.8252456749   -0.5970618170   -1.6775313080
   Point Group: c1    Number of degrees of freedom:    42


   Energy is  -1104.568752940

              Constraints and their Current Values
                                        Value     Constraint
   Dihedral:        6   8   9  10      -30.000      -30.000
 Hessian Updated using BFGS Update

 41 Hessian modes will be used to form the next step
  Hessian Eigenvalues:
     0.014272    0.044835    0.045000    0.045000    0.045000    0.045002
     0.045002    0.045003    0.045004    0.045007    0.045012    0.045560
     0.159754    0.159947    0.159992    0.160000    0.160016    0.161672
     0.221123    0.221284    0.237502    0.237840    0.250000    0.290116
     0.294458    0.299191    0.308190    0.312569    0.354779    0.354977
     0.355129    0.355155    0.358272    0.358796    0.381170    0.404883
     0.432970    0.449973    0.463582    0.489994    0.497934

 Minimum Search - Taking Simple RFO Step
 Searching for Lamda that Minimizes Along All modes
 Value Taken    Lamda =  -0.00003599
 Step Taken.  Stepsize is  0.038580

                             Maximum     Tolerance    Cnvgd?
         Gradient           0.000895      0.000300      NO
         Displacement       0.034678      0.001200      NO
         Energy change     -0.000078      0.000001      NO


 New Cartesian Coordinates Obtained by Inverse Iteration

 Displacement from previous Coordinates is:  0.073850
 ----------------------------------------------------------------
             Standard Nuclear Orientation (Angstroms)
    I     Atom           X                Y                Z
 ----------------------------------------------------------------
    1      S      -0.0030498025    -0.0325603822     0.0537823518
    2      C       1.7123834604    -0.0185953836    -0.0167507747
    3      H       2.2875643399    -0.0345836711     0.9013429639
    4      C       2.2084935167     0.0405733366    -1.3202452377
    5      H       3.2674218428     0.0389394739    -1.5485070547
    6      C       1.1936427866     0.0875215764    -2.2729246334
    7      H       1.3621297436     0.1049806605    -3.3431098738
    8      C      -0.1059542634     0.0696150741    -1.7044473624
    9      C      -1.3252247317    -0.0185710732    -2.4094202378
   10      C      -1.5755424433     0.4694672597    -3.7177447621
   11      H      -0.8006293810     0.9069884516    -4.3359598092
   12      C      -2.9115889858     0.3619978441    -4.0959830503
   13      H      -3.3086165675     0.6826978480    -5.0514894349
   14      C      -3.7044075588    -0.1999924480    -3.0939187154
   15      H      -4.7648232033    -0.4171791900    -3.1442819006
   16      S      -2.8237185328    -0.5890956267    -1.6727525788
 ----------------------------------------------------------------
 Nuclear Repulsion Energy =   632.3915232928 hartrees
 There are       43 alpha and       42 beta electrons
 Applying Cartesian multipole field
    Component          Value
    ---------          -----
     (2,0,0)        1.00000E-11
     (0,2,0)        2.00000E-11
     (0,0,2)       -3.00000E-11
 Nucleus-field energy     =    -0.0000000333 hartrees
 Requested basis set is 6-31++G(d,p)
 There are 76 shells and 234 basis functions
 A cutoff of  1.0D-12 yielded   2533 shell pairs
 There are     24893 function pairs

 Q-Chem warning in module /project/projectdirs/jcesr/qchem/qc44/cnl_qc441/compile/cori/qc_src/libqints/qchem/aobasis.C, line 68:

 Using reconstructed effective core potential

 Smallest overlap matrix eigenvalue = 1.61E-06
 Guess MOs from SCF MO coefficient file
 Reading MOs from coefficient file
 Reading MOs from coefficient file
 An unrestricted hybrid HF-DFT SCF calculation will be
[...]
    9   -1104.5687783715      6.01E-09 Convergence criterion met
 ---------------------------------------
 <S^2> = 0.7683
 SCF time:  CPU 6.08 s  wall 5.70 s
 SCF   energy in the final basis set = -1104.5687783715
 Total energy in the final basis set = -1104.5687783715
 
 --------------------------------------------------------------
 
                    Orbital Energies (a.u.)
 --------------------------------------------------------------
 
 Alpha MOs
 -- Occupied --
-89.098 -89.098 -10.432 -10.431 -10.418 -10.418 -10.393 -10.393
-10.379 -10.379  -8.157  -8.157  -6.121  -6.121  -6.118  -6.117
 -6.114  -6.114  -1.086  -1.061  -0.958  -0.933  -0.921  -0.880
 -0.788  -0.756  -0.727  -0.711  -0.702  -0.649  -0.595  -0.593
 -0.590  -0.585  -0.577  -0.555  -0.550  -0.537  -0.521  -0.469
 -0.441  -0.436  -0.393
 -- Virtual --
 -0.247  -0.185  -0.168  -0.142  -0.126  -0.126  -0.118  -0.106
 -0.100  -0.098  -0.088  -0.083  -0.078  -0.070  -0.070  -0.060
 -0.051  -0.045  -0.039  -0.029  -0.021  -0.020  -0.013  -0.007
 -0.007   0.002   0.010   0.011   0.014   0.016   0.018   0.025
  0.030   0.031   0.038   0.039   0.050   0.052   0.054   0.057
  0.061   0.068   0.076   0.080   0.089   0.090   0.098   0.103
  0.108   0.116   0.121   0.139   0.142   0.149   0.151   0.153
  0.177   0.178   0.181   0.197   0.210   0.223   0.233   0.239
  0.283   0.283   0.311   0.343   0.376   0.377   0.402   0.404
  0.425   0.442   0.452   0.479   0.482   0.487   0.493   0.510
  0.517   0.536   0.556   0.557   0.557   0.571   0.586   0.592
  0.619   0.636   0.643   0.660   0.671   0.710   0.751   0.766
  0.775   0.783   0.803   0.803   0.828   0.832   0.838   0.842
  0.856   0.867   0.879   0.909   0.913   0.925   0.940   0.966
  0.979   1.002   1.025   1.050   1.085   1.093   1.160   1.161
  1.169   1.178   1.196   1.200   1.263   1.309   1.314   1.374
  1.420   1.456   1.510   1.529   1.624   1.654   1.716   1.722
  1.750   1.758   1.801   1.816   1.831   1.834   1.887   1.896
  1.937   1.943   1.996   1.998   2.054   2.069   2.112   2.116
  2.199   2.200   2.241   2.256   2.291   2.303   2.330   2.337
  2.353   2.354   2.397   2.409   2.420   2.488   2.518   2.541
  2.581   2.615   2.684   2.740   2.780   2.969   3.028   3.107
  3.108   3.221   3.249   3.538   3.582   3.766   3.837   4.057
  4.119   4.124   4.155   4.223   4.349   4.472   4.545
 
 Beta MOs
 -- Occupied --
-89.098 -89.098 -10.430 -10.429 -10.413 -10.413 -10.391 -10.391
-10.379 -10.379  -8.157  -8.157  -6.122  -6.122  -6.118  -6.118
 -6.115  -6.115  -1.080  -1.055  -0.951  -0.931  -0.919  -0.870
 -0.783  -0.753  -0.722  -0.708  -0.700  -0.646  -0.593  -0.587
 -0.583  -0.581  -0.574  -0.547  -0.539  -0.536  -0.519  -0.443
 -0.437  -0.432
 -- Virtual --
 -0.327  -0.225  -0.179  -0.155  -0.131  -0.126  -0.124  -0.113
 -0.106  -0.099  -0.094  -0.083  -0.082  -0.077  -0.070  -0.069
 -0.058  -0.049  -0.044  -0.038  -0.028  -0.021  -0.018  -0.013
 -0.006  -0.006   0.004   0.011   0.012   0.015   0.017   0.019
  0.026   0.031   0.032   0.040   0.040   0.051   0.053   0.055
  0.059   0.063   0.069   0.077   0.082   0.090   0.091   0.099
  0.105   0.108   0.117   0.122   0.140   0.144   0.149   0.151
  0.154   0.179   0.180   0.182   0.199   0.211   0.225   0.234
  0.241   0.285   0.285   0.312   0.343   0.376   0.380   0.404
  0.405   0.426   0.443   0.453   0.483   0.493   0.494   0.498
  0.516   0.519   0.542   0.558   0.559   0.562   0.572   0.593
  0.595   0.621   0.640   0.648   0.668   0.675   0.712   0.752
  0.768   0.779   0.785   0.806   0.806   0.831   0.834   0.839
  0.843   0.857   0.868   0.881   0.911   0.915   0.926   0.941
  0.970   0.983   1.007   1.029   1.055   1.087   1.097   1.164
  1.166   1.174   1.187   1.202   1.202   1.267   1.315   1.319
  1.382   1.428   1.462   1.525   1.542   1.631   1.657   1.719
  1.724   1.752   1.761   1.807   1.822   1.835   1.839   1.891
  1.901   1.946   1.954   2.006   2.009   2.066   2.076   2.115
  2.121   2.203   2.204   2.247   2.261   2.295   2.304   2.336
  2.342   2.357   2.358   2.401   2.414   2.425   2.490   2.522
  2.546   2.584   2.620   2.687   2.742   2.782   2.970   3.030
  3.108   3.109   3.222   3.251   3.540   3.583   3.766   3.837
  4.063   4.126   4.127   4.158   4.230   4.356   4.475   4.549
 --------------------------------------------------------------
 
          Ground-State Mulliken Net Atomic Charges

     Atom                 Charge (a.u.)    Spin (a.u.)
  --------------------------------------------------------
      1 S                     0.036623      -0.054360
      2 C                     0.043067       0.330428
      3 H                     0.249455      -0.017595
      4 C                    -0.341030      -0.044470
      5 H                     0.172094       0.001476
      6 C                     0.263752       0.158550
      7 H                     0.160657      -0.009910
      8 C                    -0.086530       0.135906
      9 C                    -0.079957       0.136389
     10 C                     0.262404       0.158095
     11 H                     0.160598      -0.009928
     12 C                    -0.340795      -0.044300
     13 H                     0.172092       0.001476
     14 C                     0.041953       0.330088
     15 H                     0.249436      -0.017584
     16 S                     0.036182      -0.054264
  --------------------------------------------------------
  Sum of atomic charges =     1.000000
  Sum of spin   charges =     1.000000

 -----------------------------------------------------------------
                    Cartesian Multipole Moments
 -----------------------------------------------------------------
    Charge (ESU x 10^10)
                 4.8032
    Dipole Moment (Debye)
         X      -3.2532      Y       0.2122      Z     -10.2096
       Tot      10.7174
    Quadrupole Moments (Debye-Ang)
        XX     -29.4002     XY       1.5066     YY     -71.9095
        XZ      21.4177     YZ      -3.6164     ZZ     -27.7991
    Octopole Moments (Debye-Ang^2)
       XXX      84.7597    XXY      -6.2777    XYY      58.0474
       YYY       8.1934    XXZ      21.9748    XYZ       1.4628
       YYZ     128.8496    XZZ     -18.8658    YZZ      23.9128
       ZZZ     215.4481
    Hexadecapole Moments (Debye-Ang^3)
      XXXX   -1300.5464   XXXY       3.0613   XXYY    -355.5603
      XYYY     -45.9910   YYYY    -131.0882   XXXZ    -268.2562
      XXYZ      13.8376   XYYZ    -214.2341   YYYZ      21.4341
      XXZZ    -322.0623   XYZZ     -44.4600   YYZZ    -400.7661
      XZZZ    -287.1987   YZZZ     -92.6999   ZZZZ   -1544.5094
 -----------------------------------------------------------------
 Calculating analytic gradient of the SCF energy
 Gradient of SCF Energy
            1           2           3           4           5           6
    1  -0.0000701   0.0000492  -0.0000018   0.0000097  -0.0000011   0.0001099
    2  -0.0000183  -0.0000382   0.0000107  -0.0000105   0.0000095  -0.0046205
    3   0.0000171  -0.0000376   0.0000018   0.0000429  -0.0000129   0.0002540
            7           8           9          10          11          12
    1   0.0000126  -0.0009947   0.0021841  -0.0012714  -0.0000169  -0.0000426
    2  -0.0000376   0.0099237  -0.0093455   0.0040614   0.0000429  -0.0000049
    3  -0.0000007   0.0006397  -0.0027722   0.0018225   0.0000072   0.0000167
           13          14          15          16
    1   0.0000110  -0.0000045   0.0000026   0.0000240
    2  -0.0000002   0.0000536  -0.0000145  -0.0000117
    3  -0.0000057  -0.0000411  -0.0000017   0.0000698
 Max gradient component =       9.924E-03
 RMS gradient           =       2.248E-03
 Gradient time:  CPU 1.99 s  wall 1.94 s
 Geometry Optimization Parameters
   NAtoms,    NIC,     NZ,  NCons,   NDum,   NFix, NCnnct, MaxDiis
       16     111       0       1       0       0       0       0

 Cartesian Hessian Update
 Hessian Updated using BFGS Update


** CONSTRAINED OPTIMIZATION IN DELOCALIZED INTERNAL COORDINATES **
   Searching for a Minimum

   Optimization Cycle:   8

                       Coordinates (Angstroms)
     ATOM                X               Y               Z
      1  S        -0.0039150366   -0.0340286439    0.0536381032
      2  C         1.7121978259   -0.0199753771   -0.0165763421
      3  H         2.2864741239   -0.0382485662    0.9020543601
      4  C         2.2084583131    0.0406777473   -1.3196844594
      5  H         3.2672592820    0.0411904108   -1.5486065492
      6  C         1.1938228379    0.0889802689   -2.2727626731
      7  H         1.3642760061    0.1123890223   -3.3425298129
      8  C        -0.1057257623    0.0701934163   -1.7049256253
      9  C        -1.3248139603   -0.0192667604   -2.4101495244
     10  C        -1.5754131630    0.4679057026   -3.7184274331
     11  H        -0.8006014289    0.9004549925   -4.3402586218
     12  C        -2.9120122280    0.3617629833   -4.0957064403
     13  H        -3.3079734322    0.6810710960   -5.0521392852
     14  C        -3.7048150630   -0.1986909641   -3.0931185752
     15  H        -4.7656963363   -0.4140699718   -3.1415897778
     16  S        -2.8234417582   -0.5881416066   -1.6716274535
   Point Group: c1    Number of degrees of freedom:    42


   Energy is  -1104.568778371

              Constraints and their Current Values
                                        Value     Constraint
   Dihedral:        6   8   9  10      -30.000      -30.000
 Hessian Updated using BFGS Update

 41 Hessian modes will be used to form the next step
  Hessian Eigenvalues:
     0.013704    0.020580    0.044968    0.045000    0.045000    0.045000
     0.045002    0.045003    0.045004    0.045008    0.045012    0.045306
     0.158907    0.159947    0.159987    0.159993    0.160001    0.161418
     0.221283    0.221454    0.237843    0.238990    0.249999    0.290181
     0.294460    0.300785    0.312321    0.312566    0.354775    0.354959
     0.355129    0.355154    0.358272    0.358780    0.380665    0.404891
     0.432089    0.450967    0.463582    0.490077    0.497933

 Minimum Search - Taking Simple RFO Step
 Searching for Lamda that Minimizes Along All modes
 Value Taken    Lamda =   0.00000000
 Step Taken.  Stepsize is  0.002503

                             Maximum     Tolerance    Cnvgd?
         Gradient           0.000069      0.000300     YES
         Displacement       0.002018      0.001200      NO
         Energy change     -0.000001      0.000001     YES

 Final energy is   -1104.56877837148     


 ******************************
 **  OPTIMIZATION CONVERGED  **
 ******************************

                       Coordinates (Angstroms)
     ATOM                X               Y               Z
      1  S        -0.0039150366   -0.0340286439    0.0536381032
      2  C         1.7121978259   -0.0199753771   -0.0165763421
      3  H         2.2864741239   -0.0382485662    0.9020543601
      4  C         2.2084583131    0.0406777473   -1.3196844594
      5  H         3.2672592820    0.0411904108   -1.5486065492
      6  C         1.1938228379    0.0889802689   -2.2727626731
      7  H         1.3642760061    0.1123890223   -3.3425298129
      8  C        -0.1057257623    0.0701934163   -1.7049256253
      9  C        -1.3248139603   -0.0192667604   -2.4101495244
     10  C        -1.5754131630    0.4679057026   -3.7184274331
     11  H        -0.8006014289    0.9004549925   -4.3402586218
     12  C        -2.9120122280    0.3617629833   -4.0957064403
     13  H        -3.3079734322    0.6810710960   -5.0521392852
     14  C        -3.7048150630   -0.1986909641   -3.0931185752
     15  H        -4.7656963363   -0.4140699718   -3.1415897778
     16  S        -2.8234417582   -0.5881416066   -1.6716274535

Z-matrix Print:
$molecule
1 2
S 
C  1 1.717606
H  2 1.083517 1 119.653537
C  2 1.395723 1 113.189344 3 -178.870190 0
H  4 1.083266 2 123.014507 1 -178.969954 0
C  4 1.392902 2 112.416860 1 0.566166 0
H  6 1.083515 4 124.174373 2 -178.272050 0
C  6 1.418315 4 113.143403 2 0.199386 0
C  8 1.411212 6 126.319623 4 -173.560362 0
C  9 1.418354 8 126.284948 6 -29.999999 0
H  10 1.083562 9 122.691384 8 4.939979 0
C  10 1.392876 9 113.154527 8 -173.536996 0
H  12 1.083285 10 124.571505 9 179.727593 0
C  12 1.395646 10 112.403387 9 0.202197 0
H  14 1.083608 12 127.144262 10 -178.226058 0
S  14 1.717302 12 113.213133 10 0.539154 0
$end

 
 --------------------------------------------------------------
 
                    Orbital Energies (a.u.)
 --------------------------------------------------------------
 
 Alpha MOs
 -- Occupied --
-89.098 -89.098 -10.432 -10.431 -10.418 -10.418 -10.393 -10.393
-10.379 -10.379  -8.157  -8.157  -6.121  -6.121  -6.118  -6.117
 -6.114  -6.114  -1.086  -1.061  -0.958  -0.933  -0.921  -0.880
 -0.788  -0.756  -0.727  -0.711  -0.702  -0.649  -0.595  -0.593
 -0.590  -0.585  -0.577  -0.555  -0.550  -0.537  -0.521  -0.469
 -0.441  -0.436  -0.393
 -- Virtual --
 -0.247  -0.185  -0.168  -0.142  -0.126  -0.126  -0.118  -0.106
 -0.100  -0.098  -0.088  -0.083  -0.078  -0.070  -0.070  -0.060
 -0.051  -0.045  -0.039  -0.029  -0.021  -0.020  -0.013  -0.007
 -0.007   0.002   0.010   0.011   0.014   0.016   0.018   0.025
  0.030   0.031   0.038   0.039   0.050   0.052   0.054   0.057
  0.061   0.068   0.076   0.080   0.089   0.090   0.098   0.103
  0.108   0.116   0.121   0.139   0.142   0.149   0.151   0.153
  0.177   0.178   0.181   0.197   0.210   0.223   0.233   0.239
  0.283   0.283   0.311   0.343   0.376   0.377   0.402   0.404
  0.425   0.442   0.452   0.479   0.482   0.487   0.493   0.510
  0.517   0.536   0.556   0.557   0.557   0.571   0.586   0.592
  0.619   0.636   0.643   0.660   0.671   0.710   0.751   0.766
  0.775   0.783   0.803   0.803   0.828   0.832   0.838   0.842
  0.856   0.867   0.879   0.909   0.913   0.925   0.940   0.966
  0.979   1.002   1.025   1.050   1.085   1.093   1.160   1.161
  1.169   1.178   1.196   1.200   1.263   1.309   1.314   1.374
  1.420   1.456   1.510   1.529   1.624   1.654   1.716   1.722
  1.750   1.758   1.801   1.816   1.831   1.834   1.887   1.896
  1.937   1.943   1.996   1.998   2.054   2.069   2.112   2.116
  2.199   2.200   2.241   2.256   2.291   2.303   2.330   2.337
  2.353   2.354   2.397   2.409   2.420   2.488   2.518   2.541
  2.581   2.615   2.684   2.740   2.780   2.969   3.028   3.107
  3.108   3.221   3.249   3.538   3.582   3.766   3.837   4.057
  4.119   4.124   4.155   4.223   4.349   4.472   4.545
 
 Beta MOs
 -- Occupied --
-89.098 -89.098 -10.430 -10.429 -10.413 -10.413 -10.391 -10.391
-10.379 -10.379  -8.157  -8.157  -6.122  -6.122  -6.118  -6.118
 -6.115  -6.115  -1.080  -1.055  -0.951  -0.931  -0.919  -0.870
 -0.783  -0.753  -0.722  -0.708  -0.700  -0.646  -0.593  -0.587
 -0.583  -0.581  -0.574  -0.547  -0.539  -0.536  -0.519  -0.443
 -0.437  -0.432
 -- Virtual --
 -0.327  -0.225  -0.179  -0.155  -0.131  -0.126  -0.124  -0.113
 -0.106  -0.099  -0.094  -0.083  -0.082  -0.077  -0.070  -0.069
 -0.058  -0.049  -0.044  -0.038  -0.028  -0.021  -0.018  -0.013
 -0.006  -0.006   0.004   0.011   0.012   0.015   0.017   0.019
  0.026   0.031   0.032   0.040   0.040   0.051   0.053   0.055
  0.059   0.063   0.069   0.077   0.082   0.090   0.091   0.099
  0.105   0.108   0.117   0.122   0.140   0.144   0.149   0.151
  0.154   0.179   0.180   0.182   0.199   0.211   0.225   0.234
  0.241   0.285   0.285   0.312   0.343   0.376   0.380   0.404
  0.405   0.426   0.443   0.453   0.483   0.493   0.494   0.498
  0.516   0.519   0.542   0.558   0.559   0.562   0.572   0.593
  0.595   0.621   0.640   0.648   0.668   0.675   0.712   0.752
  0.768   0.779   0.785   0.806   0.806   0.831   0.834   0.839
  0.843   0.857   0.868   0.881   0.911   0.915   0.926   0.941
  0.970   0.983   1.007   1.029   1.055   1.087   1.097   1.164
  1.166   1.174   1.187   1.202   1.202   1.267   1.315   1.319
  1.382   1.428   1.462   1.525   1.542   1.631   1.657   1.719
  1.724   1.752   1.761   1.807   1.822   1.835   1.839   1.891
  1.901   1.946   1.954   2.006   2.009   2.066   2.076   2.115
  2.121   2.203   2.204   2.247   2.261   2.295   2.304   2.336
  2.342   2.357   2.358   2.401   2.414   2.425   2.490   2.522
  2.546   2.584   2.620   2.687   2.742   2.782   2.970   3.030
  3.108   3.109   3.222   3.251   3.540   3.583   3.766   3.837
  4.063   4.126   4.127   4.158   4.230   4.356   4.475   4.549
 --------------------------------------------------------------
 
          Ground-State Mulliken Net Atomic Charges

     Atom                 Charge (a.u.)    Spin (a.u.)
  --------------------------------------------------------
      1 S                     0.036623      -0.054360
      2 C                     0.043067       0.330428
      3 H                     0.249455      -0.017595
      4 C                    -0.341030      -0.044470
      5 H                     0.172094       0.001476
      6 C                     0.263752       0.158550
      7 H                     0.160657      -0.009910
      8 C                    -0.086530       0.135906
      9 C                    -0.079957       0.136389
     10 C                     0.262404       0.158095
     11 H                     0.160598      -0.009928
     12 C                    -0.340795      -0.044300
     13 H                     0.172092       0.001476
     14 C                     0.041953       0.330088
     15 H                     0.249436      -0.017584
     16 S                     0.036182      -0.054264
  --------------------------------------------------------
  Sum of atomic charges =     1.000000
  Sum of spin   charges =     1.000000

 -----------------------------------------------------------------
                    Cartesian Multipole Moments
 -----------------------------------------------------------------
    Charge (ESU x 10^10)
                 4.8032
    Dipole Moment (Debye)
         X      -3.2532      Y       0.2122      Z     -10.2096
       Tot      10.7174
    Quadrupole Moments (Debye-Ang)
        XX     -29.4002     XY       1.5066     YY     -71.9095
        XZ      21.4177     YZ      -3.6164     ZZ     -27.7991
    Octopole Moments (Debye-Ang^2)
       XXX      84.7597    XXY      -6.2777    XYY      58.0474
       YYY       8.1934    XXZ      21.9748    XYZ       1.4628
       YYZ     128.8496    XZZ     -18.8658    YZZ      23.9128
       ZZZ     215.4481
    Hexadecapole Moments (Debye-Ang^3)
      XXXX   -1300.5464   XXXY       3.0613   XXYY    -355.5603
      XYYY     -45.9910   YYYY    -131.0882   XXXZ    -268.2562
      XXYZ      13.8376   XYYZ    -214.2341   YYYZ      21.4341
      XXZZ    -322.0623   XYZZ     -44.4600   YYZZ    -400.7661
      XZZZ    -287.1987   YZZZ     -92.6999   ZZZZ   -1544.5094
 -----------------------------------------------------------------
Archival summary:
1\1\nid00848\OPT\ProcedureUnspecified\BasisUnspecified\286(1+,2)\bwood\WedMay3102:27:302017WedMay3102:27:302017\0\\#,OPT,ProcedureUnspecified,BasisUnspecified,\\1,2\S\C,1,1.71761\H,2,1.08352,1,119.654\C,2,1.39572,1,113.189,3,-178.87,0\H,4,1.08327,2,123.015,1,-178.97,0\C,4,1.3929,2,112.417,1,0.566166,0\H,6,1.08351,4,124.174,2,-178.272,0\C,6,1.41832,4,113.143,2,0.199386,0\C,8,1.41121,6,126.32,4,-173.56,0\C,9,1.41835,8,126.285,6,-30,0\H,10,1.08356,9,122.691,8,4.93998,0\C,10,1.39288,9,113.155,8,-173.537,0\H,12,1.08329,10,124.572,9,179.728,0\C,12,1.39565,10,112.403,9,0.202197,0\H,14,1.08361,12,127.144,10,-178.226,0\S,14,1.7173,12,113.213,10,0.539154,0\\\@

 Total job time:  91.02s(wall), 91.14s(cpu) 
 Wed May 31 02:27:30 2017

        *************************************************************
        *                                                           *
        *  Thank you very much for using Q-Chem.  Have a nice day.  *
        *                                                           *
        *************************************************************


0 sent ACK to 0 
now end server 0 ... 
