srun -N 1 --ntasks-per-node 16 --cpus-per-task 4 --cpu_bind=cores --nodelist nid00798 /global/project/projectdirs/jcesr/qchem/qc44/cnl_qc441/dist/exe/qcprog.cori.haswell.exe .pt_n2_cation_150.0.in.27206.qcin.1 /global/cscratch1/sd/bwood/qchem/nx/qchem27206/
Process 1 of 16 is on nid00798 - thread support 0
Process 2 of 16 is on nid00798 - thread support 0
Process 3 of 16 is on nid00798 - thread support 0
Process 4 of 16 is on nid00798 - thread support 0
Process 5 of 16 is on nid00798 - thread support 0
Process 6 of 16 is on nid00798 - thread support 0
Process 0 of 16 is on nid00798 - thread support 0
initial socket setup ...start
Process 15 of 16 is on nid00798 - thread support 0
initial socket setup ...done 
now start server 0 ... 
nid00798 10.128.3
Q-Chem Developer Version! Running on 10.128.3.*
                  Welcome to Q-Chem
     A Quantum Leap Into The Future Of Chemistry


 Q-Chem 4.4, Q-Chem, Inc., Pleasanton, CA (2016)

 Y. Shao,  Z. Gan,  E. Epifanovsky,  A. T. B. Gilbert,  M. Wormit,  
 J. Kussmann,  A. W. Lange,  A. Behn,  J. Deng,  X. Feng,  D. Ghosh,  
 M. Goldey,  P. R. Horn,  L. D. Jacobson,  I. Kaliman,  F. Rob,  
 R. Z. Khaliullin,  T. Kus,  A. Landau,  J. Liu,  E. I. Proynov,  Y. M. Rhee,  
 R. M. Richard,  M. A. Rohrdanz,  R. P. Steele,  E. J. Sundstrom,  
 H. L. Woodcock III,  P. M. Zimmerman,  D. Zuev,  B. Albrecht,  E. Alguire,  
 B. Austin,  S. A. Baeppler,  G. J. O. Beran,  Y. A. Bernard,  
 E. J. Berquist,  K. Brandhorst,  K. B. Bravaya,  S. T. Brown,  D. Casanova,  
 C.-M. Chang,  Y. Chen,  S. H. Chien,  K. D. Closser,  M. P. Coons,  
 D. L. Crittenden,  S. Dasgupta,  M. Diedenhofen,  R. A. DiStasio Jr.,  
 H. Do,  A. D. Dutoi,  R. G. Edgar,  P.-T. Fang,  S. Fatehi,  Q. Feng,  
 L. Fusti-Molnar,  A. Ghysels,  A. Golubeva-Zadorozhnaya,  J. Gomes,  
 A. Gunina,  M. W. D. Hanson-Heine,  P. H. P. Harbach,  A. W. Hauser,  
 J. E. Herr,  E. G. Hohenstein,  Z. C. Holden,  K. Hui,  T.-C. Jagau,  H. Ji,  
 B. Kaduk,  K. Khistyaev,  Jaehoon Kim,  Jihan Kim,  R. A. King,  
 P. Klunzinger,  K. Koh,  D. Kosenkov,  T. Kowalczyk,  C. M. Krauter,  
 A. Kunitsa,  K. U. Lao,  A. Laurent,  K. V. Lawler,  J. Lee,  D. Lefrancois,  
 S. Lehtola,  S. V. Levchenko,  C. Y. Lin,  Y.-S. Lin,  F. Liu,  E. Livshits,  
 R. C. Lochan,  A. Luenser,  P. Manohar,  S. F. Manzer,  S.-P. Mao,  Y. Mao,  
 N. Mardirossian,  A. V. Marenich,  L. A. Martinez-Martinez,  S. A. Maurer,  
 N. J. Mayhall,  J.-M. Mewes,  A. F. Morrison,  K. Nanda,  T. S. Nguyen-Beck,  
 C. M. Oana,  R. Olivares-Amaya,  D. P. O'Neill,  J. A. Parkhill,  
 T. M. Perrine,  R. Peverati,  P. A. Pieniazek,  F. Plasser,  A. Prociuk,  
 D. R. Rehn,  E. Rosta,  N. J. Russ,  N. Sergueev,  S. M. Sharada,  
 S. Sharma,  D. W. Small,  A. Sodt,  T. Stauch,  T. Stein,  D. Stuck,  
 Y.-C. Su,  A. J. W. Thom,  T. Tsuchimochi,  L. Vogt,  O. Vydrov,  T. Wang,  
 M. A. Watson,  J. Wenzel,  A. White,  C. F. Williams,  V. Vanovschi,  
 K. Yao,  S. Yeganeh,  S. R. Yost,  Z.-Q. You,  I. Y. Zhang,  X. Zhang,  
 Y. Zhao,  B. R. Brooks,  G. K. L. Chan,  D. M. Chipman,  C. J. Cramer,  
 W. A. Goddard III,  M. S. Gordon,  W. J. Hehre,  A. Klamt,  
 H. F. Schaefer III,  M. W. Schmidt,  C. D. Sherrill,  D. G. Truhlar,  
 A. Warshel,  X. Xu,  A. Aspuru-Guzik,  R. Baer,  A. T. Bell,  N. A. Besley,  
 J.-D. Chai,  A. Dreuw,  B. D. Dunietz,  T. R. Furlani,  S. R. Gwaltney,  
 C.-P. Hsu,  Y. Jung,  J. Kong,  D. S. Lambrecht,  W. Liang,  C. Ochsenfeld,  
 V. A. Rassolov,  L. V. Slipchenko,  J. E. Subotnik,  T. Van Voorhis,  
 J. M. Herbert,  A. I. Krylov,  P. M. W. Gill,  M. Head-Gordon

 Contributors to earlier versions of Q-Chem not listed above: 
 R. D. Adamson,  J. Baker,  E. F. C. Byrd,  A. K. Chakraborty,  C.-L. Cheng,  
 H. Dachsel,  R. J. Doerksen,  G. Hawkins,  A. Heyden,  S. Hirata,  
 G. Kedziora,  F. J. Keil,  C. Kelley,  P. P. Korambath,  W. Kurlancheek,  
 A. M. Lee,  M. S. Lee,  D. Liotard,  I. Lotan,  P. E. Maslen,  N. Nair,  
 D. Neuhauser,  R. Olson,  B. Peters,  J. Ritchie,  N. E. Schultz,  
 N. Shenvi,  A. C. Simmonett,  K. S. Thanthiriwatte,  Q. Wu,  W. Zhang

 Please cite Q-Chem as follows:
 Y. Shao et al., Mol. Phys. 113, 184-215 (2015)
 DOI: 10.1080/00268976.2014.952696

 Q-Chem 4.4.2 for Intel X86 EM64T Linux

 Parts of Q-Chem use Armadillo 5.200.1 (Boston Tea Smuggler).
 http://arma.sourceforge.net/

 Q-Chem begins on Wed May 31 02:25:56 2017  

Host: nid00776
0

     Scratch files written to /global/cscratch1/sd/bwood/qchem/nx/qchem27206.0//
 Parallel job on  16  processors

Checking the input file for inconsistencies... 	...done.

--------------------------------------------------------------
User input:
--------------------------------------------------------------
$molecule
 1  2
 S           0.00238887        0.06077275        0.00183269
 C           1.73707619        0.03315849        0.00323229
 H           2.27612737        0.05289032        0.94042557
 C           2.24169204       -0.01546201       -1.26965798
 H           3.30285780       -0.04005365       -1.48972496
 C           1.22479222       -0.01612968       -2.26811464
 H           1.42674790       -0.02650987       -3.33334501
 C          -0.05393771        0.02880388       -1.75170966
 C          -1.32450815        0.04889988       -2.45636342
 C          -2.54806543       -0.44653152       -2.05450058
 H          -2.70091680       -0.92368040       -1.09284395
 C          -3.58658103       -0.23918038       -3.00811244
 H          -4.61324198       -0.55390457       -2.85975274
 C          -3.15375068        0.41399950       -4.13201107
 H          -3.72508858        0.70543623       -5.00271131
 S          -1.45832140        0.77222614       -4.04998349
$end


$rem
         jobtype = opt
        exchange = b3lyp
           basis = 6-31++g**
  max_scf_cycles = 150
      mem_static = 775
       mem_total = 7750
      sym_ignore = true
        symmetry = false
          thresh = 12
$end


$opt
CONSTRAINT
tors 6 8 9 10 150.0
ENDCONSTRAINT
$end

--------------------------------------------------------------
 ----------------------------------------------------------------
             Standard Nuclear Orientation (Angstroms)
    I     Atom           X                Y                Z
 ----------------------------------------------------------------
    1      S       0.0023888700     0.0607727500     0.0018326900
    2      C       1.7370761900     0.0331584900     0.0032322900
    3      H       2.2761273700     0.0528903200     0.9404255700
    4      C       2.2416920400    -0.0154620100    -1.2696579800
    5      H       3.3028578000    -0.0400536500    -1.4897249600
    6      C       1.2247922200    -0.0161296800    -2.2681146400
    7      H       1.4267479000    -0.0265098700    -3.3333450100
    8      C      -0.0539377100     0.0288038800    -1.7517096600
    9      C      -1.3245081500     0.0488998800    -2.4563634200
   10      C      -2.5480654300    -0.4465315200    -2.0545005800
   11      H      -2.7009168000    -0.9236804000    -1.0928439500
   12      C      -3.5865810300    -0.2391803800    -3.0081124400
   13      H      -4.6132419800    -0.5539045700    -2.8597527400
   14      C      -3.1537506800     0.4139995000    -4.1320110700
   15      H      -3.7250885800     0.7054362300    -5.0027113100
   16      S      -1.4583214000     0.7722261400    -4.0499834900
 ----------------------------------------------------------------
 Nuclear Repulsion Energy =   628.8940616038 hartrees
 There are       43 alpha and       42 beta electrons
 Requested basis set is 6-31++G(d,p)
 There are 76 shells and 234 basis functions

 Total QAlloc Memory Limit   7750 MB
 Mega-Array Size       758 MB
 MEM_STATIC part       775 MB
 A cutoff of  1.0D-12 yielded   2529 shell pairs
 There are     24905 function pairs

 Q-Chem warning in module /project/projectdirs/jcesr/qchem/qc44/cnl_qc441/compile/cori/qc_src/libqints/qchem/aobasis.C, line 68:

 Using reconstructed effective core potential

 
 -------------------------------------------------------
 OpenMP Integral Computing Module                       
 Release: version 1.0, May 2013, Q-Chem Inc. Pittsburgh 
 -------------------------------------------------------
 Integral Job Info:
 Integral job number is                      11
 Integral operator is                         1
 short-range coefficients                     0
 long-range coefficients              100000000
 Omega coefficients                           0
 if combine SR and LR in K                    0
 Integral screening is                        0
 Integral computing path is                   2
 max size of driver memory is            800000
 size of driver memory is                593474
 size of scratch memory is             15166112
 max col of scratch BK array               1296
 max len of scratch array in speh3          155
 max len of scratch index in speh4           18
 max int batch size is                      520
 min int batch size is                       52
 fixed nKL is                                52
 max L of basis functions is                  2
 order of int derivative is                   0
 number of shells is                         76
 number of basis is                         234
 number of cartesian basis is               234
 number of contracted shell pairs          2529
 number of primitive shell pairs           8254
 maxK2 (contraction) of shell pair           36
 max number of K2 of shell pair               1
 max number of CS2 of shell pair            268
 max number of PS2 of shell pair           1524
 mem total for path MDJ                   51992
 -------------------------------------------------------
 Smallest overlap matrix eigenvalue = 1.03E-06

 Scale SEOQF with 1.000000e-01/1.000000e-01/1.000000e-01

 Standard Electronic Orientation quadrupole field applied
 Nucleus-field energy     =    -0.0000000500 hartrees
 Guess from superposition of atomic densities
 Warning:  Energy on first SCF cycle will be non-variational
 An unrestricted hybrid HF-DFT SCF calculation will be
 performed using Pulay DIIS extrapolation
 Exchange:     0.2000 Hartree-Fock + 0.0800 Slater + 0.7200 B88
 Correlation:  0.1900 VWN1RPA + 0.8100 LYP
 Using SG-1 standard quadrature grid
 SCF converges when DIIS error is below 1.0E-08
 Inaccurate integrated density:
   Number of electrons =    85
   Numerical integral  =    86.000176854866
   Relative error      =     1.1766786528 %
 ---------------------------------------
  Cycle       Energy         DIIS Error
 ---------------------------------------
    1   -1107.1944287504      4.41E-02
    2   -1104.4567077753      3.62E-03
    3   -1104.2948934665      5.65E-03
    4   -1104.5562093291      8.00E-04
    5   -1104.5587440128      5.82E-04
    6   -1104.5615761298      1.58E-04
    7   -1104.5618374318      5.66E-05
    8   -1104.5618986297      1.85E-05
    9   -1104.5619282363      1.68E-05
   10   -1104.5619499239      6.66E-06
   11   -1104.5619589048      3.18E-06
   12   -1104.5619601421      1.64E-06
   13   -1104.5619602871      8.38E-07
   14   -1104.5619603438      1.87E-07
   15   -1104.5619603486      6.97E-08
   16   -1104.5619603489      3.49E-08
   17   -1104.5619603494      9.59E-09 Convergence criterion met
 ---------------------------------------
 <S^2> = 0.7635
 SCF time:  CPU 11.46 s  wall 10.96 s
 SCF   energy in the final basis set = -1104.5619603494
 Total energy in the final basis set = -1104.5619603494
 
 --------------------------------------------------------------
 
                    Orbital Energies (a.u.)
 --------------------------------------------------------------
 
 Alpha MOs
 -- Occupied --
-89.094 -89.094 -10.434 -10.434 -10.418 -10.418 -10.393 -10.393
-10.381 -10.381  -8.153  -8.153  -6.118  -6.118  -6.114  -6.114
 -6.110  -6.110  -1.088  -1.064  -0.960  -0.928  -0.915  -0.893
 -0.786  -0.758  -0.730  -0.711  -0.700  -0.654  -0.598  -0.595
 -0.594  -0.581  -0.581  -0.557  -0.554  -0.527  -0.516  -0.469
 -0.437  -0.433  -0.407
 -- Virtual --
 -0.238  -0.183  -0.156  -0.155  -0.131  -0.124  -0.119  -0.106
 -0.099  -0.094  -0.093  -0.090  -0.080  -0.074  -0.073  -0.057
 -0.049  -0.039  -0.034  -0.029  -0.025  -0.015  -0.014  -0.007
 -0.000   0.001   0.009   0.009   0.013   0.015   0.023   0.027
  0.027   0.032   0.036   0.040   0.043   0.051   0.052   0.053
  0.060   0.067   0.072   0.081   0.086   0.092   0.099   0.108
  0.115   0.118   0.123   0.131   0.132   0.144   0.144   0.157
  0.170   0.177   0.186   0.192   0.213   0.216   0.239   0.244
  0.276   0.298   0.308   0.361   0.367   0.382   0.387   0.411
  0.424   0.450   0.452   0.457   0.477   0.484   0.488   0.510
  0.519   0.535   0.553   0.561   0.566   0.576   0.581   0.606
  0.624   0.646   0.647   0.663   0.673   0.699   0.751   0.776
  0.779   0.787   0.790   0.796   0.816   0.836   0.844   0.848
  0.858   0.864   0.879   0.905   0.922   0.930   0.952   0.964
  0.980   1.007   1.017   1.051   1.080   1.102   1.147   1.164
  1.165   1.177   1.178   1.198   1.277   1.292   1.330   1.344
  1.400   1.498   1.507   1.552   1.618   1.682   1.685   1.715
  1.741   1.744   1.765   1.792   1.832   1.871   1.892   1.910
  1.932   1.975   1.994   2.003   2.054   2.054   2.077   2.154
  2.196   2.201   2.247   2.265   2.277   2.299   2.321   2.333
  2.352   2.356   2.402   2.414   2.426   2.485   2.520   2.542
  2.570   2.678   2.684   2.739   2.751   2.972   3.024   3.107
  3.110   3.230   3.256   3.548   3.570   3.800   3.803   4.055
  4.125   4.128   4.151   4.227   4.350   4.476   4.531
 
 Beta MOs
 -- Occupied --
-89.094 -89.094 -10.432 -10.432 -10.414 -10.414 -10.391 -10.391
-10.381 -10.381  -8.154  -8.154  -6.118  -6.118  -6.114  -6.114
 -6.111  -6.111  -1.082  -1.058  -0.952  -0.925  -0.913  -0.883
 -0.782  -0.753  -0.725  -0.708  -0.699  -0.651  -0.594  -0.593
 -0.582  -0.579  -0.578  -0.550  -0.541  -0.526  -0.516  -0.440
 -0.433  -0.429
 -- Virtual --
 -0.343  -0.219  -0.168  -0.153  -0.151  -0.125  -0.118  -0.115
 -0.101  -0.096  -0.093  -0.091  -0.089  -0.079  -0.074  -0.072
 -0.057  -0.047  -0.038  -0.033  -0.028  -0.023  -0.014  -0.013
 -0.007   0.001   0.001   0.009   0.011   0.014   0.017   0.024
  0.028   0.028   0.033   0.037   0.042   0.044   0.052   0.054
  0.054   0.062   0.068   0.073   0.083   0.088   0.093   0.100
  0.108   0.116   0.120   0.124   0.133   0.133   0.145   0.145
  0.158   0.171   0.179   0.188   0.194   0.215   0.218   0.242
  0.246   0.278   0.299   0.310   0.362   0.367   0.383   0.388
  0.413   0.426   0.452   0.454   0.460   0.486   0.491   0.493
  0.518   0.521   0.537   0.558   0.564   0.567   0.581   0.590
  0.608   0.626   0.649   0.651   0.668   0.678   0.701   0.753
  0.780   0.781   0.789   0.794   0.799   0.817   0.837   0.845
  0.850   0.860   0.866   0.881   0.907   0.924   0.931   0.954
  0.968   0.984   1.012   1.021   1.057   1.084   1.104   1.149
  1.170   1.171   1.183   1.186   1.204   1.281   1.297   1.338
  1.349   1.406   1.510   1.520   1.560   1.623   1.689   1.689
  1.717   1.745   1.747   1.767   1.798   1.837   1.874   1.897
  1.918   1.938   1.985   2.005   2.011   2.059   2.064   2.084
  2.160   2.199   2.204   2.249   2.273   2.285   2.301   2.324
  2.339   2.355   2.360   2.407   2.418   2.430   2.488   2.525
  2.546   2.575   2.681   2.689   2.740   2.753   2.974   3.026
  3.108   3.110   3.231   3.258   3.550   3.572   3.800   3.804
  4.061   4.128   4.135   4.155   4.234   4.357   4.480   4.535
 --------------------------------------------------------------
 
          Ground-State Mulliken Net Atomic Charges

     Atom                 Charge (a.u.)    Spin (a.u.)
  --------------------------------------------------------
      1 S                     0.037339      -0.046388
      2 C                     0.088077       0.302851
      3 H                     0.248193      -0.015291
      4 C                    -0.382621      -0.019756
      5 H                     0.171019      -0.000233
      6 C                     0.362749       0.147884
      7 H                     0.167688      -0.008425
      8 C                    -0.195296       0.139324
      9 C                    -0.188640       0.139746
     10 C                     0.359208       0.147519
     11 H                     0.167836      -0.008414
     12 C                    -0.380724      -0.019515
     13 H                     0.170963      -0.000241
     14 C                     0.087544       0.302528
     15 H                     0.248181      -0.015288
     16 S                     0.038482      -0.046301
  --------------------------------------------------------
  Sum of atomic charges =     1.000000
  Sum of spin   charges =     1.000000

 -----------------------------------------------------------------
                    Cartesian Multipole Moments
 -----------------------------------------------------------------
    Charge (ESU x 10^10)
                 4.8032
    Dipole Moment (Debye)
         X      -3.3125      Y       0.1900      Z     -10.1039
       Tot      10.6347
    Quadrupole Moments (Debye-Ang)
        XX     -29.9527     XY       0.4508     YY     -71.5159
        XZ      23.4068     YZ      -3.7853     ZZ     -27.2544
    Octopole Moments (Debye-Ang^2)
       XXX      68.4391    XXY     -12.5301    XYY      45.5155
       YYY     -26.6180    XXZ      36.3724    XYZ       9.7692
       YYZ     146.8479    XZZ     -47.1982    YZZ      15.4229
       ZZZ     263.1882
    Hexadecapole Moments (Debye-Ang^3)
      XXXX   -1151.8172   XXXY      48.3412   XXYY    -311.6546
      XYYY      27.3757   YYYY    -151.6032   XXXZ    -318.3220
      XXYZ      16.7103   XYYZ    -221.2326   YYYZ     118.7098
      XXZZ    -321.8852   XYZZ     -58.3032   YYZZ    -505.3636
      XZZZ    -207.4102   YZZZ     -11.1684   ZZZZ   -2104.2288
 -----------------------------------------------------------------
 Calculating analytic gradient of the SCF energy
 Gradient of SCF Energy
            1           2           3           4           5           6
    1   0.0013693   0.0190107  -0.0006358   0.0019542   0.0004416  -0.0352046
    2   0.0023919   0.0012988  -0.0009820   0.0006462   0.0007973  -0.0066361
    3  -0.0128809  -0.0090374  -0.0011102   0.0313485   0.0005712   0.0021689
            7           8           9          10          11          12
    1  -0.0012202   0.0374338  -0.0368735   0.0357433   0.0009019  -0.0033903
    2   0.0015954   0.0011327  -0.0064935   0.0015266   0.0016356   0.0129713
    3  -0.0000527  -0.0008491  -0.0001988  -0.0033327   0.0007283  -0.0284843
           13          14          15          16
    1  -0.0006050  -0.0185105   0.0008337  -0.0012485
    2   0.0008426  -0.0061488  -0.0011882  -0.0033898
    3  -0.0002258   0.0080677   0.0006304   0.0126568
 Max gradient component =       3.743E-02
 RMS gradient           =       1.340E-02
 Gradient time:  CPU 1.92 s  wall 1.91 s
 Geometry Optimization Parameters
   NAtoms,    NIC,     NZ,  NCons,   NDum,   NFix, NCnnct, MaxDiis
       16     111       0       1       0       0       0       0


** CONSTRAINED OPTIMIZATION IN DELOCALIZED INTERNAL COORDINATES **
   Searching for a Minimum

   Optimization Cycle:   1

                       Coordinates (Angstroms)
     ATOM                X               Y               Z
      1  S         0.0023888700    0.0607727500    0.0018326900
      2  C         1.7370761900    0.0331584900    0.0032322900
      3  H         2.2761273700    0.0528903200    0.9404255700
      4  C         2.2416920400   -0.0154620100   -1.2696579800
      5  H         3.3028578000   -0.0400536500   -1.4897249600
      6  C         1.2247922200   -0.0161296800   -2.2681146400
      7  H         1.4267479000   -0.0265098700   -3.3333450100
      8  C        -0.0539377100    0.0288038800   -1.7517096600
      9  C        -1.3245081500    0.0488998800   -2.4563634200
     10  C        -2.5480654300   -0.4465315200   -2.0545005800
     11  H        -2.7009168000   -0.9236804000   -1.0928439500
     12  C        -3.5865810300   -0.2391803800   -3.0081124400
     13  H        -4.6132419800   -0.5539045700   -2.8597527400
     14  C        -3.1537506800    0.4139995000   -4.1320110700
     15  H        -3.7250885800    0.7054362300   -5.0027113100
     16  S        -1.4583214000    0.7722261400   -4.0499834900
   Point Group: c1    Number of degrees of freedom:    42


   Energy is  -1104.561960349

              Constraints and their Current Values
                                        Value     Constraint
   Dihedral:        6   8   9  10      150.000      150.000

 Attempting to Generate Delocalized Internal Coordinates

 41 Hessian modes will be used to form the next step
  Hessian Eigenvalues:
     0.045000    0.045000    0.045000    0.045000    0.045000    0.045000
     0.045002    0.045002    0.045003    0.045004    0.045011    0.045012
     0.159943    0.159949    0.159991    0.159992    0.160000    0.160000
     0.221282    0.221282    0.237835    0.237839    0.250000    0.250000
     0.294264    0.294663    0.312518    0.312618    0.354736    0.354850
     0.355125    0.355132    0.358226    0.358329    0.378510    0.404854
     0.404909    0.463547    0.463616    0.497922    0.497945

 Minimum Search - Taking Simple RFO Step
 Searching for Lamda that Minimizes Along All modes
 Value Taken    Lamda =  -0.01199375
 Step Taken.  Stepsize is  0.210586

                             Maximum     Tolerance    Cnvgd?
         Gradient           0.031023      0.000300      NO
         Displacement       0.097436      0.001200      NO
         Energy change     *********      0.000001      NO


 New Cartesian Coordinates Obtained by Inverse Iteration

 Displacement from previous Coordinates is:  0.438721
 ----------------------------------------------------------------
             Standard Nuclear Orientation (Angstroms)
    I     Atom           X                Y                Z
 ----------------------------------------------------------------
    1      S      -0.0451433938     0.0508859820     0.0171074996
    2      C       1.6815526876     0.0023832333    -0.0228659132
    3      H       2.2257354854    -0.0074195297     0.9136603369
    4      C       2.2119335983    -0.0191206608    -1.3092197934
    5      H       3.2731213135    -0.0612630026    -1.5243355841
    6      C       1.2190898235     0.0243385573    -2.2925245607
    7      H       1.4231415000     0.0228328946    -3.3576822041
    8      C      -0.0756023061     0.0720949512    -1.7467125210
    9      C      -1.3118101022     0.0941347448    -2.4428909650
   10      C      -2.5492294522    -0.4183326335    -2.0153990522
   11      H      -2.7056916094    -0.8878724755    -1.0502601876
   12      C      -3.5549515754    -0.2528584404    -2.9721667562
   13      H      -4.5783520566    -0.5816466976    -2.8353801558
   14      C      -3.0924727976     0.3866831411    -4.1182774766
   15      H      -3.6632079257     0.6501961058    -5.0004513972
   16      S      -1.4108425593     0.7796989401    -4.0659419694
 ----------------------------------------------------------------
 Nuclear Repulsion Energy =   630.3240694131 hartrees
 There are       43 alpha and       42 beta electrons
 Applying Cartesian multipole field
    Component          Value
    ---------          -----
     (2,0,0)        1.00000E-11
     (0,2,0)        2.00000E-11
     (0,0,2)       -3.00000E-11
 Nucleus-field energy     =    -0.0000000503 hartrees
 Requested basis set is 6-31++G(d,p)
 There are 76 shells and 234 basis functions
 A cutoff of  1.0D-12 yielded   2539 shell pairs
 There are     25097 function pairs

 Q-Chem warning in module /project/projectdirs/jcesr/qchem/qc44/cnl_qc441/compile/cori/qc_src/libqints/qchem/aobasis.C, line 68:

 Using reconstructed effective core potential

 Smallest overlap matrix eigenvalue = 7.67E-07
 Linear dependence detected in AO basis
 Number of orthogonalized atomic orbitals = 233
 Maximum deviation from orthogonality = 7.298E-11
 No. of orbitals has changed due to linear dependencies.  Generating new SCF guess.
 Guess from superposition of atomic densities
 Warning:  Energy on first SCF cycle will be non-variational
 An unrestricted hybrid HF-DFT SCF calculation will be
 performed using Pulay DIIS extrapolation
 Exchange:     0.2000 Hartree-Fock + 0.0800 Slater + 0.7200 B88
 Correlation:  0.1900 VWN1RPA + 0.8100 LYP
 Using SG-1 standard quadrature grid
 SCF converges when DIIS error is below 1.0E-08
 Geometry optimization detected.  Setting ReadMinima to 0
 Setting SaveMinima to 0
 Inaccurate integrated density:
   Number of electrons =    85
   Numerical integral  =    86.000295559920
   Relative error      =     1.1768183058 %
 ---------------------------------------
  Cycle       Energy         DIIS Error
 ---------------------------------------
    1   -1107.1782283175      4.41E-02
    2   -1104.4586141322      3.69E-03
    3   -1104.2916092749      5.76E-03
    4   -1104.5636243837      6.85E-04
    5   -1104.5651421594      5.47E-04
    6   -1104.5675283618      1.56E-04
    7   -1104.5677704018      5.53E-05
    8   -1104.5678225977      1.28E-05
    9   -1104.5678479492      9.24E-06
   10   -1104.5678603271      5.61E-06
   11   -1104.5678650027      2.85E-06
   12   -1104.5678659444      1.36E-06
   13   -1104.5678660258      6.77E-07
   14   -1104.5678660575      1.73E-07
   15   -1104.5678660604      7.12E-08
   16   -1104.5678660608      3.83E-08
   17   -1104.5678660607      1.03E-08
   18   -1104.5678660605      5.49E-09 Convergence criterion met
 ---------------------------------------
 <S^2> = 0.7664
 SCF time:  CPU 12.08 s  wall 12.08 s
 SCF   energy in the final basis set = -1104.5678660605
 Total energy in the final basis set = -1104.5678660605
 
 --------------------------------------------------------------
 
                    Orbital Energies (a.u.)
 --------------------------------------------------------------
 
 Alpha MOs
 -- Occupied --
-89.098 -89.098 -10.431 -10.430 -10.418 -10.418 -10.392 -10.392
-10.380 -10.380  -8.157  -8.157  -6.121  -6.121  -6.117  -6.117
 -6.114  -6.114  -1.086  -1.060  -0.957  -0.933  -0.921  -0.881
 -0.786  -0.757  -0.726  -0.713  -0.702  -0.647  -0.593  -0.593
 -0.587  -0.582  -0.580  -0.555  -0.551  -0.536  -0.524  -0.465
 -0.441  -0.436  -0.396
 -- Virtual --
 -0.243  -0.185  -0.162  -0.159  -0.130  -0.124  -0.115  -0.106
 -0.099  -0.095  -0.093  -0.090  -0.080  -0.074  -0.071  -0.056
 -0.049  -0.037  -0.032  -0.029  -0.023  -0.014  -0.013  -0.008
 -0.000  -0.000   0.009   0.010   0.014   0.018   0.023   0.026
  0.027   0.033   0.036   0.042   0.043   0.051   0.052   0.052
  0.067   0.074   0.077   0.082   0.092   0.096   0.099   0.106
  0.108   0.120   0.122   0.130   0.136   0.142   0.147   0.155
  0.169   0.181   0.200   0.209   0.214   0.236   0.237   0.246
  0.301   0.308   0.364   0.366   0.384   0.387   0.406   0.419
  0.452   0.454   0.456   0.479   0.481   0.486   0.509   0.512
  0.540   0.551   0.563   0.570   0.580   0.583   0.606   0.616
  0.649   0.651   0.659   0.677   0.697   0.747   0.771   0.780
  0.784   0.786   0.800   0.815   0.819   0.841   0.842   0.844
  0.857   0.877   0.900   0.916   0.924   0.956   0.966   0.978
  1.002   1.008   1.037   1.080   1.099   1.142   1.167   1.171
  1.175   1.178   1.199   1.278   1.291   1.328   1.342   1.399
  1.497   1.507   1.547   1.635   1.662   1.694   1.725   1.731
  1.749   1.784   1.802   1.845   1.873   1.891   1.902   1.938
  1.965   2.001   2.010   2.053   2.056   2.078   2.147   2.197
  2.203   2.256   2.264   2.272   2.298   2.324   2.328   2.349
  2.349   2.392   2.404   2.421   2.482   2.521   2.544   2.572
  2.678   2.680   2.741   2.752   2.970   3.024   3.105   3.108
  3.226   3.251   3.552   3.572   3.798   3.800   4.057   4.091
  4.132   4.143   4.231   4.342   4.485   4.537
 
 Beta MOs
 -- Occupied --
-89.098 -89.098 -10.429 -10.428 -10.413 -10.413 -10.390 -10.390
-10.380 -10.380  -8.157  -8.157  -6.121  -6.121  -6.117  -6.117
 -6.114  -6.114  -1.080  -1.054  -0.949  -0.931  -0.918  -0.870
 -0.781  -0.753  -0.721  -0.710  -0.700  -0.644  -0.592  -0.585
 -0.581  -0.579  -0.578  -0.547  -0.539  -0.535  -0.523  -0.438
 -0.437  -0.433
 -- Virtual --
 -0.330  -0.223  -0.171  -0.158  -0.155  -0.125  -0.117  -0.111
 -0.101  -0.097  -0.094  -0.091  -0.089  -0.079  -0.073  -0.069
 -0.056  -0.047  -0.036  -0.031  -0.029  -0.022  -0.014  -0.012
 -0.007   0.001   0.001   0.010   0.012   0.015   0.019   0.023
  0.028   0.028   0.034   0.037   0.043   0.044   0.052   0.053
  0.053   0.068   0.076   0.079   0.084   0.093   0.099   0.099
  0.108   0.109   0.121   0.123   0.131   0.137   0.143   0.148
  0.156   0.170   0.183   0.201   0.210   0.216   0.237   0.238
  0.249   0.302   0.310   0.364   0.366   0.385   0.388   0.408
  0.421   0.453   0.456   0.459   0.485   0.490   0.493   0.513
  0.517   0.542   0.555   0.564   0.572   0.585   0.591   0.608
  0.618   0.651   0.656   0.666   0.682   0.699   0.749   0.775
  0.782   0.786   0.790   0.802   0.816   0.821   0.842   0.844
  0.845   0.859   0.880   0.902   0.917   0.925   0.957   0.970
  0.982   1.007   1.012   1.041   1.084   1.101   1.144   1.173
  1.178   1.178   1.187   1.205   1.282   1.297   1.336   1.346
  1.406   1.509   1.521   1.556   1.641   1.666   1.701   1.726
  1.733   1.754   1.785   1.807   1.850   1.877   1.895   1.910
  1.944   1.975   2.013   2.018   2.060   2.064   2.085   2.152
  2.201   2.206   2.257   2.271   2.279   2.299   2.328   2.334
  2.352   2.353   2.397   2.408   2.425   2.485   2.526   2.548
  2.576   2.681   2.684   2.743   2.754   2.971   3.026   3.105
  3.108   3.227   3.253   3.553   3.574   3.798   3.801   4.064
  4.098   4.135   4.146   4.238   4.349   4.489   4.541
 --------------------------------------------------------------
 
          Ground-State Mulliken Net Atomic Charges

     Atom                 Charge (a.u.)    Spin (a.u.)
  --------------------------------------------------------
      1 S                     0.046618      -0.046231
      2 C                     0.102337       0.322977
      3 H                     0.249532      -0.016317
      4 C                    -0.349777      -0.030512
      5 H                     0.172951       0.000548
      6 C                     0.391963       0.155733
      7 H                     0.165585      -0.008902
      8 C                    -0.279826       0.122536
      9 C                    -0.278469       0.123256
     10 C                     0.390354       0.155380
     11 H                     0.165743      -0.008908
     12 C                    -0.349189      -0.030429
     13 H                     0.172874       0.000547
     14 C                     0.101980       0.322893
     15 H                     0.249480      -0.016322
     16 S                     0.047845      -0.046247
  --------------------------------------------------------
  Sum of atomic charges =     1.000000
  Sum of spin   charges =     1.000000

 -----------------------------------------------------------------
                    Cartesian Multipole Moments
 -----------------------------------------------------------------
    Charge (ESU x 10^10)
                 4.8032
    Dipole Moment (Debye)
         X      -3.3108      Y       0.1694      Z     -10.1090
       Tot      10.6387
    Quadrupole Moments (Debye-Ang)
        XX     -31.4300     XY       0.6270     YY     -71.5222
        XZ      21.9762     YZ      -3.9897     ZZ     -26.8348
    Octopole Moments (Debye-Ang^2)
       XXX      72.1833    XXY     -15.0675    XYY      45.8014
       YYY     -27.5690    XXZ      41.2751    XYZ       8.0730
       YYZ     146.8494    XZZ     -41.9629    YZZ      15.2025
       ZZZ     259.8431
    Hexadecapole Moments (Debye-Ang^3)
      XXXX   -1138.6054   XXXY      53.4158   XXYY    -305.3104
      XYYY      26.5305   YYYY    -150.7233   XXXZ    -328.7046
      XXYZ      25.5347   XYYZ    -216.4681   YYYZ     123.0558
      XXZZ    -340.7671   XYZZ     -51.0005   YYZZ    -505.4325
      XZZZ    -213.1114   YZZZ      -6.5968   ZZZZ   -2085.3288
 -----------------------------------------------------------------
 Calculating analytic gradient of the SCF energy
 Gradient of SCF Energy
            1           2           3           4           5           6
    1  -0.0089302   0.0032119  -0.0011049   0.0010920  -0.0000864  -0.0072123
    2   0.0021491   0.0015522  -0.0006358  -0.0002324   0.0004830  -0.0062014
    3   0.0029413  -0.0064303   0.0002221   0.0046687  -0.0016134  -0.0028056
            7           8           9          10          11          12
    1   0.0012973   0.0145159  -0.0148838   0.0084095  -0.0014156  -0.0012180
    2   0.0008657   0.0025707   0.0003647  -0.0053751   0.0004296   0.0015143
    3  -0.0002132   0.0021498  -0.0015912   0.0003309   0.0004803  -0.0043573
           13          14          15          16
    1   0.0000583  -0.0032073   0.0012002   0.0082733
    2  -0.0002152  -0.0018147  -0.0002480   0.0047932
    3   0.0016672   0.0063737  -0.0004000  -0.0014231
 Max gradient component =       1.488E-02
 RMS gradient           =       4.561E-03
 Gradient time:  CPU 1.94 s  wall 1.91 s
 Geometry Optimization Parameters
   NAtoms,    NIC,     NZ,  NCons,   NDum,   NFix, NCnnct, MaxDiis
       16     111       0       1       0       0       0       0

 Cartesian Hessian Update
 Hessian Updated using BFGS Update


** CONSTRAINED OPTIMIZATION IN DELOCALIZED INTERNAL COORDINATES **
   Searching for a Minimum

   Optimization Cycle:   2

                       Coordinates (Angstroms)
     ATOM                X               Y               Z
      1  S        -0.0451433938    0.0508859820    0.0171074996
      2  C         1.6815526876    0.0023832333   -0.0228659132
      3  H         2.2257354854   -0.0074195297    0.9136603369
      4  C         2.2119335983   -0.0191206608   -1.3092197934
      5  H         3.2731213135   -0.0612630026   -1.5243355841
      6  C         1.2190898235    0.0243385573   -2.2925245607
      7  H         1.4231415000    0.0228328946   -3.3576822041
      8  C        -0.0756023061    0.0720949512   -1.7467125210
      9  C        -1.3118101022    0.0941347448   -2.4428909650
     10  C        -2.5492294522   -0.4183326335   -2.0153990522
     11  H        -2.7056916094   -0.8878724755   -1.0502601876
     12  C        -3.5549515754   -0.2528584404   -2.9721667562
     13  H        -4.5783520566   -0.5816466976   -2.8353801558
     14  C        -3.0924727976    0.3866831411   -4.1182774766
     15  H        -3.6632079257    0.6501961058   -5.0004513972
     16  S        -1.4108425593    0.7796989401   -4.0659419694
   Point Group: c1    Number of degrees of freedom:    42


   Energy is  -1104.567866060

              Constraints and their Current Values
                                        Value     Constraint
   Dihedral:        6   8   9  10      150.000      150.000
 Hessian Updated using BFGS Update

 41 Hessian modes will be used to form the next step
  Hessian Eigenvalues:
     0.041364    0.045000    0.045000    0.045000    0.045000    0.045000
     0.045002    0.045002    0.045004    0.045005    0.045012    0.045025
     0.159652    0.159947    0.159987    0.159992    0.160000    0.160710
     0.221282    0.221573    0.237837    0.247011    0.250000    0.278063
     0.294383    0.294875    0.305423    0.312568    0.354666    0.354817
     0.355106    0.355129    0.358176    0.358305    0.381653    0.404881
     0.429551    0.445530    0.463582    0.489508    0.497933

 Minimum Search - Taking Simple RFO Step
 Searching for Lamda that Minimizes Along All modes
 Value Taken    Lamda =  -0.00192049
 Step Taken.  Stepsize is  0.143785

                             Maximum     Tolerance    Cnvgd?
         Gradient           0.010120      0.000300      NO
         Displacement       0.082286      0.001200      NO
         Energy change     -0.005906      0.000001      NO


 New Cartesian Coordinates Obtained by Inverse Iteration

 Displacement from previous Coordinates is:  0.315428
 ----------------------------------------------------------------
             Standard Nuclear Orientation (Angstroms)
    I     Atom           X                Y                Z
 ----------------------------------------------------------------
    1      S      -0.0249186611     0.0346285462     0.0249007167
    2      C       1.6934296759    -0.0333986704    -0.0150124655
    3      H       2.2471793166    -0.0739107487     0.9159914702
    4      C       2.2154454515    -0.0218370316    -1.3101642680
    5      H       3.2759485209    -0.0789050647    -1.5232672898
    6      C       1.2219320726     0.0649374584    -2.2845666431
    7      H       1.4183769424     0.0758586243    -3.3504630578
    8      C      -0.0832785161     0.1132052479    -1.7395165358
    9      C      -1.3125290222     0.1354954713    -2.4322472725
   10      C      -2.5604038991    -0.3788221157    -2.0061939553
   11      H      -2.7120205160    -0.8361447196    -1.0351221691
   12      C      -3.5577550631    -0.2564418400    -2.9727329158
   13      H      -4.5776327186    -0.5979111056    -2.8440316263
   14      C      -3.0973780181     0.3555748494    -4.1404287099
   15      H      -3.6711929030     0.5872804774    -5.0304907122
   16      S      -1.4279320327     0.7651257316    -4.0799952657
 ----------------------------------------------------------------
 Nuclear Repulsion Energy =   629.4770377548 hartrees
 There are       43 alpha and       42 beta electrons
 Applying Cartesian multipole field
    Component          Value
    ---------          -----
     (2,0,0)        1.00000E-11
     (0,2,0)        2.00000E-11
     (0,0,2)       -3.00000E-11
 Nucleus-field energy     =    -0.0000000505 hartrees
 Requested basis set is 6-31++G(d,p)
 There are 76 shells and 234 basis functions
 A cutoff of  1.0D-12 yielded   2531 shell pairs
 There are     24917 function pairs

 Q-Chem warning in module /project/projectdirs/jcesr/qchem/qc44/cnl_qc441/compile/cori/qc_src/libqints/qchem/aobasis.C, line 68:

 Using reconstructed effective core potential

 Smallest overlap matrix eigenvalue = 7.66E-07
 Linear dependence detected in AO basis
 Number of orthogonalized atomic orbitals = 233
 Maximum deviation from orthogonality = 3.279E-11
 Guess MOs from SCF MO coefficient file
 Reading MOs from coefficient file
 Size of previous SCF MO coefficient file: 109510 (expected); 109980 (actual). 

 Q-Chem warning in module /project/projectdirs/jcesr/qchem/qc44/cnl_qc441/compile/cori/qc_src/gesman/GuessMan.C, line 722:

 Inconsistent size for SCF MO coefficient file.  Please check basis and PURECART setting.

 Reading MOs from coefficient file
 An unrestricted hybrid HF-DFT SCF calculation will be
 performed using Pulay DIIS extrapolation
 Exchange:     0.2000 Hartree-Fock + 0.0800 Slater + 0.7200 B88
 Correlation:  0.1900 VWN1RPA + 0.8100 LYP
 Using SG-1 standard quadrature grid
 SCF converges when DIIS error is below 1.0E-08
 Geometry optimization detected.  Setting ReadMinima to 0
 Setting SaveMinima to 0
 ---------------------------------------
  Cycle       Energy         DIIS Error
 ---------------------------------------
    1   -1104.5451882672      1.19E-03
    2   -1104.5689766796      1.19E-04
    3   -1104.5690025806      1.28E-04
    4   -1104.5691167642      3.62E-05
    5   -1104.5691267153      1.27E-05
    6   -1104.5691275549      8.59E-06
    7   -1104.5691281729      2.00E-06
    8   -1104.5691282169      4.22E-07
    9   -1104.5691282230      2.07E-07
   10   -1104.5691282266      1.03E-07
   11   -1104.5691282273      7.91E-08
   12   -1104.5691282278      3.46E-08
   13   -1104.5691282284      1.10E-08
   14   -1104.5691282280      5.99E-09 Convergence criterion met
 ---------------------------------------
 <S^2> = 0.7669
 SCF time:  CPU 9.31 s  wall 9.05 s
 SCF   energy in the final basis set = -1104.5691282280
 Total energy in the final basis set = -1104.5691282280
 
 --------------------------------------------------------------
 
                    Orbital Energies (a.u.)
 --------------------------------------------------------------
 
 Alpha MOs
 -- Occupied --
-89.098 -89.098 -10.431 -10.431 -10.418 -10.418 -10.392 -10.392
-10.380 -10.380  -8.157  -8.157  -6.121  -6.121  -6.117  -6.117
 -6.114  -6.114  -1.085  -1.060  -0.958  -0.933  -0.921  -0.880
 -0.788  -0.757  -0.725  -0.712  -0.701  -0.649  -0.594  -0.594
 -0.588  -0.584  -0.579  -0.555  -0.551  -0.535  -0.522  -0.467
 -0.441  -0.436  -0.394
 -- Virtual --
 -0.245  -0.184  -0.161  -0.156  -0.130  -0.124  -0.116  -0.108
 -0.099  -0.095  -0.093  -0.090  -0.080  -0.074  -0.071  -0.056
 -0.049  -0.038  -0.032  -0.031  -0.023  -0.014  -0.013  -0.007
 -0.001  -0.000   0.009   0.010   0.014   0.018   0.022   0.026
  0.027   0.033   0.036   0.041   0.044   0.051   0.051   0.052
  0.068   0.074   0.078   0.081   0.092   0.096   0.100   0.105
  0.107   0.121   0.124   0.130   0.135   0.141   0.147   0.154
  0.167   0.181   0.201   0.208   0.214   0.236   0.237   0.246
  0.297   0.309   0.363   0.364   0.381   0.391   0.409   0.421
  0.449   0.458   0.463   0.477   0.482   0.485   0.507   0.508
  0.539   0.551   0.563   0.570   0.580   0.582   0.605   0.614
  0.648   0.651   0.657   0.676   0.696   0.746   0.770   0.780
  0.784   0.790   0.804   0.818   0.818   0.839   0.840   0.847
  0.860   0.874   0.896   0.919   0.928   0.955   0.966   0.974
  0.999   1.008   1.040   1.080   1.095   1.146   1.167   1.168
  1.173   1.175   1.205   1.281   1.290   1.324   1.337   1.406
  1.496   1.510   1.543   1.640   1.656   1.689   1.727   1.730
  1.750   1.782   1.797   1.843   1.866   1.885   1.896   1.943
  1.962   2.000   2.010   2.048   2.050   2.079   2.151   2.196
  2.202   2.250   2.265   2.273   2.297   2.322   2.326   2.348
  2.351   2.392   2.405   2.422   2.485   2.519   2.543   2.567
  2.675   2.679   2.738   2.753   2.970   3.025   3.105   3.109
  3.224   3.247   3.549   3.568   3.797   3.802   4.057   4.091
  4.131   4.141   4.231   4.339   4.483   4.533
 
 Beta MOs
 -- Occupied --
-89.098 -89.098 -10.430 -10.429 -10.414 -10.414 -10.390 -10.390
-10.380 -10.380  -8.157  -8.157  -6.122  -6.122  -6.118  -6.117
 -6.114  -6.114  -1.080  -1.054  -0.951  -0.930  -0.918  -0.870
 -0.783  -0.753  -0.720  -0.710  -0.699  -0.646  -0.593  -0.586
 -0.583  -0.578  -0.577  -0.548  -0.539  -0.534  -0.521  -0.440
 -0.437  -0.433
 -- Virtual --
 -0.329  -0.224  -0.169  -0.157  -0.153  -0.125  -0.117  -0.112
 -0.101  -0.097  -0.094  -0.091  -0.089  -0.079  -0.073  -0.069
 -0.056  -0.047  -0.037  -0.031  -0.030  -0.021  -0.014  -0.011
 -0.007   0.000   0.001   0.010   0.012   0.015   0.020   0.023
  0.027   0.028   0.035   0.037   0.042   0.044   0.051   0.053
  0.054   0.068   0.076   0.080   0.084   0.094   0.098   0.100
  0.107   0.107   0.122   0.124   0.131   0.136   0.142   0.148
  0.155   0.168   0.183   0.202   0.210   0.216   0.237   0.239
  0.249   0.298   0.310   0.363   0.364   0.383   0.392   0.410
  0.423   0.450   0.460   0.466   0.482   0.489   0.495   0.509
  0.516   0.541   0.554   0.564   0.572   0.586   0.591   0.608
  0.617   0.650   0.656   0.663   0.681   0.697   0.748   0.775
  0.781   0.786   0.795   0.807   0.819   0.820   0.840   0.842
  0.848   0.862   0.877   0.898   0.921   0.929   0.956   0.970
  0.979   1.004   1.013   1.044   1.084   1.097   1.148   1.172
  1.172   1.180   1.184   1.211   1.285   1.297   1.332   1.340
  1.412   1.507   1.524   1.553   1.646   1.659   1.696   1.728
  1.732   1.755   1.784   1.802   1.848   1.870   1.889   1.905
  1.948   1.971   2.011   2.017   2.053   2.062   2.085   2.157
  2.200   2.205   2.252   2.272   2.279   2.298   2.326   2.332
  2.352   2.354   2.397   2.410   2.426   2.488   2.524   2.547
  2.572   2.678   2.683   2.740   2.755   2.971   3.026   3.105
  3.109   3.225   3.249   3.551   3.570   3.797   3.803   4.063
  4.098   4.134   4.144   4.238   4.346   4.487   4.537
 --------------------------------------------------------------
 
          Ground-State Mulliken Net Atomic Charges

     Atom                 Charge (a.u.)    Spin (a.u.)
  --------------------------------------------------------
      1 S                     0.046035      -0.046761
      2 C                     0.103268       0.326260
      3 H                     0.250558      -0.016612
      4 C                    -0.362679      -0.033449
      5 H                     0.172719       0.000681
      6 C                     0.393073       0.156362
      7 H                     0.163983      -0.009150
      8 C                    -0.267839       0.122420
      9 C                    -0.266605       0.123372
     10 C                     0.393053       0.155923
     11 H                     0.164167      -0.009165
     12 C                    -0.362847      -0.033388
     13 H                     0.172644       0.000681
     14 C                     0.103294       0.326228
     15 H                     0.250527      -0.016618
     16 S                     0.046649      -0.046784
  --------------------------------------------------------
  Sum of atomic charges =     1.000000
  Sum of spin   charges =     1.000000

 -----------------------------------------------------------------
                    Cartesian Multipole Moments
 -----------------------------------------------------------------
    Charge (ESU x 10^10)
                 4.8032
    Dipole Moment (Debye)
         X      -3.3037      Y       0.0988      Z     -10.1240
       Tot      10.6499
    Quadrupole Moments (Debye-Ang)
        XX     -31.2679     XY       0.6098     YY     -71.6792
        XZ      22.4457     YZ      -3.8853     ZZ     -26.4958
    Octopole Moments (Debye-Ang^2)
       XXX      72.1834    XXY     -16.1574    XYY      46.2703
       YYY     -27.8005    XXZ      40.3063    XYZ       6.8262
       YYZ     147.4777    XZZ     -44.5906    YZZ      13.6886
       ZZZ     256.9557
    Hexadecapole Moments (Debye-Ang^3)
      XXXX   -1146.1127   XXXY      55.5109   XXYY    -307.6776
      XYYY      27.2537   YYYY    -147.7009   XXXZ    -327.6756
      XXYZ      29.4076   XYYZ    -219.8791   YYYZ     125.3086
      XXZZ    -334.9275   XYZZ     -45.2305   YYZZ    -509.8001
      XZZZ    -202.0810   YZZZ       2.0971   ZZZZ   -2076.3510
 -----------------------------------------------------------------
 Calculating analytic gradient of the SCF energy
 Gradient of SCF Energy
            1           2           3           4           5           6
    1  -0.0025983   0.0014396  -0.0001714   0.0005645  -0.0001443  -0.0010849
    2   0.0010373   0.0010356  -0.0003190  -0.0002402   0.0001630  -0.0052379
    3   0.0008721  -0.0005887   0.0004424   0.0004207  -0.0004843  -0.0016678
            7           8           9          10          11          12
    1   0.0005947   0.0016505  -0.0023199   0.0021444  -0.0006157  -0.0005117
    2   0.0001982   0.0036463   0.0027680  -0.0051674   0.0001164  -0.0001397
    3   0.0001957  -0.0002556   0.0016030  -0.0005484  -0.0001213  -0.0004767
           13          14          15          16
    1   0.0001306  -0.0016072   0.0002123   0.0023167
    2  -0.0000290   0.0004187  -0.0000569   0.0018065
    3   0.0005059   0.0008891  -0.0005112  -0.0002748
 Max gradient component =       5.238E-03
 RMS gradient           =       1.595E-03
 Gradient time:  CPU 1.89 s  wall 1.91 s
 Geometry Optimization Parameters
   NAtoms,    NIC,     NZ,  NCons,   NDum,   NFix, NCnnct, MaxDiis
       16     111       0       1       0       0       0       0

 Cartesian Hessian Update
 Hessian Updated using BFGS Update


** CONSTRAINED OPTIMIZATION IN DELOCALIZED INTERNAL COORDINATES **
   Searching for a Minimum

   Optimization Cycle:   3

                       Coordinates (Angstroms)
     ATOM                X               Y               Z
      1  S        -0.0249186611    0.0346285462    0.0249007167
      2  C         1.6934296759   -0.0333986704   -0.0150124655
      3  H         2.2471793166   -0.0739107487    0.9159914702
      4  C         2.2154454515   -0.0218370316   -1.3101642680
      5  H         3.2759485209   -0.0789050647   -1.5232672898
      6  C         1.2219320726    0.0649374584   -2.2845666431
      7  H         1.4183769424    0.0758586243   -3.3504630578
      8  C        -0.0832785161    0.1132052479   -1.7395165358
      9  C        -1.3125290222    0.1354954713   -2.4322472725
     10  C        -2.5604038991   -0.3788221157   -2.0061939553
     11  H        -2.7120205160   -0.8361447196   -1.0351221691
     12  C        -3.5577550631   -0.2564418400   -2.9727329158
     13  H        -4.5776327186   -0.5979111056   -2.8440316263
     14  C        -3.0973780181    0.3555748494   -4.1404287099
     15  H        -3.6711929030    0.5872804774   -5.0304907122
     16  S        -1.4279320327    0.7651257316   -4.0799952657
   Point Group: c1    Number of degrees of freedom:    42


   Energy is  -1104.569128228

              Constraints and their Current Values
                                        Value     Constraint
   Dihedral:        6   8   9  10      150.000      150.000
 Hessian Updated using BFGS Update

 41 Hessian modes will be used to form the next step
  Hessian Eigenvalues:
     0.028500    0.045000    0.045000    0.045000    0.045000    0.045000
     0.045002    0.045002    0.045004    0.045005    0.045012    0.045308
     0.156767    0.159947    0.159992    0.160000    0.160025    0.160071
     0.220767    0.221282    0.237837    0.248710    0.250003    0.281633
     0.294444    0.298130    0.300621    0.312568    0.354775    0.354978
     0.355129    0.355187    0.358271    0.358697    0.379710    0.404881
     0.429067    0.459536    0.463583    0.487152    0.497933

 Minimum Search - Taking Simple RFO Step
 Searching for Lamda that Minimizes Along All modes
 Value Taken    Lamda =  -0.00048249
 Step Taken.  Stepsize is  0.122060

                             Maximum     Tolerance    Cnvgd?
         Gradient           0.002687      0.000300      NO
         Displacement       0.066033      0.001200      NO
         Energy change     -0.001262      0.000001      NO


 New Cartesian Coordinates Obtained by Inverse Iteration

 Displacement from previous Coordinates is:  0.300539
 ----------------------------------------------------------------
             Standard Nuclear Orientation (Angstroms)
    I     Atom           X                Y                Z
 ----------------------------------------------------------------
    1      S      -0.0174038353     0.0178192583     0.0285785627
    2      C       1.6944879430    -0.0700840854    -0.0169657926
    3      H       2.2536348328    -0.1409133708     0.9084617702
    4      C       2.2133675528    -0.0229623364    -1.3135478224
    5      H       3.2734065570    -0.0898861115    -1.5263408986
    6      C       1.2195079404     0.1027303895    -2.2796417501
    7      H       1.4076782115     0.1314512660    -3.3468289914
    8      C      -0.0877073261     0.1507491417    -1.7326893764
    9      C      -1.3159447927     0.1727999594    -2.4224295682
   10      C      -2.5660409740    -0.3422803582    -1.9951544722
   11      H      -2.7134662955    -0.7827175278    -1.0155500856
   12      C      -3.5553722634    -0.2584467653    -2.9703544100
   13      H      -4.5729017351    -0.6087052105    -2.8463795854
   14      C      -3.0907654454     0.3218221652    -4.1535471214
   15      H      -3.6633537723     0.5229926138    -5.0512674930
   16      S      -1.4318559676     0.7503660820    -4.0896836656
 ----------------------------------------------------------------
 Nuclear Repulsion Energy =   629.6441021334 hartrees
 There are       43 alpha and       42 beta electrons
 Applying Cartesian multipole field
    Component          Value
    ---------          -----
     (2,0,0)        1.00000E-11
     (0,2,0)        2.00000E-11
     (0,0,2)       -3.00000E-11
 Nucleus-field energy     =    -0.0000000507 hartrees
 Requested basis set is 6-31++G(d,p)
 There are 76 shells and 234 basis functions
 A cutoff of  1.0D-12 yielded   2533 shell pairs
 There are     24941 function pairs

 Q-Chem warning in module /project/projectdirs/jcesr/qchem/qc44/cnl_qc441/compile/cori/qc_src/libqints/qchem/aobasis.C, line 68:

 Using reconstructed effective core potential

 Smallest overlap matrix eigenvalue = 8.10E-07
 Linear dependence detected in AO basis
 Number of orthogonalized atomic orbitals = 233
 Maximum deviation from orthogonality = 5.286E-11
 Guess MOs from SCF MO coefficient file
 Reading MOs from coefficient file
 Size of previous SCF MO coefficient file: 109510 (expected); 109980 (actual). 

 Q-Chem warning in module /project/projectdirs/jcesr/qchem/qc44/cnl_qc441/compile/cori/qc_src/gesman/GuessMan.C, line 722:

 Inconsistent size for SCF MO coefficient file.  Please check basis and PURECART setting.

 Reading MOs from coefficient file
 An unrestricted hybrid HF-DFT SCF calculation will be
 performed using Pulay DIIS extrapolation
 Exchange:     0.2000 Hartree-Fock + 0.0800 Slater + 0.7200 B88
 Correlation:  0.1900 VWN1RPA + 0.8100 LYP
 Using SG-1 standard quadrature grid
 SCF converges when DIIS error is below 1.0E-08
 Geometry optimization detected.  Setting ReadMinima to 0
 Setting SaveMinima to 0
 ---------------------------------------
  Cycle       Energy         DIIS Error
 ---------------------------------------
    1   -1104.5605443361      9.89E-04
    2   -1104.5693365074      7.37E-05
    3   -1104.5693433683      9.33E-05
    4   -1104.5694025977      3.95E-05
    5   -1104.5694145036      1.09E-05
    6   -1104.5694152644      5.40E-06
    7   -1104.5694155074      1.23E-06
    8   -1104.5694155210      2.98E-07
    9   -1104.5694155228      1.39E-07
   10   -1104.5694155233      6.94E-08
   11   -1104.5694155239      2.63E-08
   12   -1104.5694155244      1.22E-08
   13   -1104.5694155237      8.32E-09 Convergence criterion met
 ---------------------------------------
 <S^2> = 0.7669
 SCF time:  CPU 8.74 s  wall 8.37 s
 SCF   energy in the final basis set = -1104.5694155237
 Total energy in the final basis set = -1104.5694155237
 
 --------------------------------------------------------------
 
                    Orbital Energies (a.u.)
 --------------------------------------------------------------
 
 Alpha MOs
 -- Occupied --
-89.098 -89.098 -10.432 -10.431 -10.418 -10.418 -10.392 -10.392
-10.379 -10.379  -8.157  -8.157  -6.122  -6.121  -6.117  -6.117
 -6.114  -6.114  -1.086  -1.061  -0.958  -0.933  -0.921  -0.880
 -0.788  -0.758  -0.725  -0.712  -0.701  -0.650  -0.595  -0.594
 -0.589  -0.584  -0.579  -0.555  -0.552  -0.534  -0.521  -0.468
 -0.442  -0.436  -0.393
 -- Virtual --
 -0.246  -0.182  -0.160  -0.155  -0.130  -0.124  -0.115  -0.109
 -0.099  -0.095  -0.093  -0.091  -0.080  -0.074  -0.070  -0.056
 -0.049  -0.038  -0.032  -0.031  -0.023  -0.014  -0.012  -0.007
 -0.002   0.000   0.009   0.010   0.014   0.019   0.022   0.025
  0.027   0.034   0.037   0.041   0.043   0.051   0.051   0.052
  0.068   0.074   0.079   0.082   0.093   0.096   0.100   0.105
  0.106   0.122   0.124   0.132   0.134   0.140   0.148   0.153
  0.167   0.181   0.202   0.208   0.214   0.236   0.237   0.245
  0.296   0.309   0.362   0.363   0.381   0.393   0.410   0.423
  0.447   0.460   0.468   0.474   0.483   0.484   0.503   0.508
  0.539   0.550   0.563   0.571   0.580   0.581   0.606   0.614
  0.650   0.650   0.656   0.676   0.696   0.746   0.769   0.779
  0.785   0.793   0.806   0.816   0.820   0.837   0.841   0.849
  0.861   0.872   0.893   0.922   0.930   0.954   0.964   0.973
  0.997   1.009   1.044   1.082   1.092   1.147   1.163   1.167
  1.173   1.174   1.211   1.279   1.292   1.319   1.333   1.414
  1.493   1.511   1.542   1.642   1.656   1.686   1.728   1.731
  1.752   1.782   1.794   1.843   1.863   1.883   1.894   1.947
  1.963   2.001   2.008   2.044   2.052   2.080   2.154   2.196
  2.203   2.248   2.266   2.273   2.298   2.322   2.326   2.350
  2.353   2.392   2.406   2.423   2.487   2.519   2.543   2.566
  2.673   2.678   2.740   2.754   2.971   3.026   3.105   3.109
  3.223   3.245   3.549   3.568   3.797   3.804   4.057   4.091
  4.132   4.142   4.230   4.339   4.484   4.532
 
 Beta MOs
 -- Occupied --
-89.098 -89.098 -10.430 -10.429 -10.414 -10.414 -10.390 -10.390
-10.380 -10.380  -8.157  -8.157  -6.122  -6.122  -6.118  -6.118
 -6.115  -6.115  -1.080  -1.055  -0.951  -0.931  -0.919  -0.870
 -0.784  -0.754  -0.720  -0.709  -0.699  -0.647  -0.593  -0.587
 -0.584  -0.578  -0.576  -0.549  -0.539  -0.533  -0.519  -0.441
 -0.438  -0.433
 -- Virtual --
 -0.328  -0.225  -0.168  -0.156  -0.151  -0.125  -0.117  -0.112
 -0.100  -0.098  -0.094  -0.091  -0.090  -0.079  -0.073  -0.069
 -0.056  -0.047  -0.037  -0.032  -0.030  -0.021  -0.013  -0.011
 -0.007  -0.001   0.001   0.011   0.011   0.015   0.021   0.022
  0.027   0.029   0.035   0.037   0.042   0.044   0.051   0.052
  0.054   0.069   0.076   0.081   0.084   0.095   0.098   0.100
  0.106   0.107   0.123   0.125   0.133   0.135   0.141   0.150
  0.153   0.168   0.183   0.204   0.210   0.216   0.237   0.239
  0.249   0.297   0.311   0.362   0.364   0.382   0.395   0.412
  0.425   0.448   0.461   0.473   0.478   0.488   0.496   0.505
  0.516   0.542   0.554   0.564   0.573   0.587   0.589   0.609
  0.617   0.651   0.655   0.662   0.681   0.698   0.748   0.773
  0.780   0.787   0.798   0.808   0.818   0.821   0.838   0.843
  0.851   0.863   0.875   0.895   0.923   0.931   0.955   0.969
  0.978   1.001   1.014   1.048   1.086   1.095   1.149   1.167
  1.172   1.181   1.182   1.216   1.283   1.299   1.326   1.337
  1.420   1.504   1.526   1.552   1.647   1.660   1.693   1.729
  1.733   1.757   1.784   1.799   1.848   1.867   1.888   1.903
  1.953   1.972   2.013   2.014   2.049   2.065   2.086   2.160
  2.199   2.206   2.250   2.273   2.280   2.299   2.326   2.332
  2.354   2.356   2.398   2.411   2.427   2.490   2.524   2.548
  2.570   2.676   2.682   2.741   2.756   2.972   3.027   3.105
  3.109   3.225   3.247   3.551   3.570   3.797   3.805   4.063
  4.098   4.135   4.145   4.237   4.346   4.488   4.535
 --------------------------------------------------------------
 
          Ground-State Mulliken Net Atomic Charges

     Atom                 Charge (a.u.)    Spin (a.u.)
  --------------------------------------------------------
      1 S                     0.044879      -0.047011
      2 C                     0.098114       0.326790
      3 H                     0.250243      -0.016729
      4 C                    -0.364864      -0.033975
      5 H                     0.172935       0.000701
      6 C                     0.394283       0.156274
      7 H                     0.162222      -0.009289
      8 C                    -0.258921       0.122971
      9 C                    -0.257766       0.124023
     10 C                     0.396055       0.155760
     11 H                     0.162489      -0.009310
     12 C                    -0.365992      -0.033886
     13 H                     0.172864       0.000702
     14 C                     0.098526       0.326723
     15 H                     0.250236      -0.016732
     16 S                     0.044698      -0.047013
  --------------------------------------------------------
  Sum of atomic charges =     1.000000
  Sum of spin   charges =     1.000000

 -----------------------------------------------------------------
                    Cartesian Multipole Moments
 -----------------------------------------------------------------
    Charge (ESU x 10^10)
                 4.8032
    Dipole Moment (Debye)
         X      -3.2973      Y       0.0365      Z     -10.1371
       Tot      10.6599
    Quadrupole Moments (Debye-Ang)
        XX     -31.3335     XY       0.6334     YY     -71.7738
        XZ      22.5618     YZ      -3.7924     ZZ     -26.2962
    Octopole Moments (Debye-Ang^2)
       XXX      72.6120    XXY     -17.1953    XYY      46.7475
       YYY     -27.7858    XXZ      40.3581    XYZ       5.3686
       YYZ     147.9642    XZZ     -45.6927    YZZ      12.2539
       ZZZ     254.9510
    Hexadecapole Moments (Debye-Ang^3)
      XXXX   -1147.8964   XXXY      57.5385   XXYY    -308.2536
      XYYY      27.3756   YYYY    -145.0940   XXXZ    -328.3888
      XXYZ      33.6341   XYYZ    -221.7306   YYYZ     126.6549
      XXZZ    -333.6194   XYZZ     -38.5062   YYZZ    -512.7190
      XZZZ    -195.3081   YZZZ      10.3950   ZZZZ   -2067.6415
 -----------------------------------------------------------------
 Calculating analytic gradient of the SCF energy
 Gradient of SCF Energy
            1           2           3           4           5           6
    1   0.0006622  -0.0001729  -0.0000147  -0.0004818   0.0000157   0.0013058
    2   0.0002520   0.0002290  -0.0000395   0.0001526  -0.0000503  -0.0048571
    3  -0.0002548   0.0007111  -0.0000147  -0.0010122   0.0000837   0.0004386
            7           8           9          10          11          12
    1  -0.0000265  -0.0015072   0.0006543  -0.0003880   0.0000731   0.0004940
    2  -0.0002233   0.0048018   0.0039906  -0.0044086  -0.0002135  -0.0002050
    3   0.0000345  -0.0012307   0.0031411  -0.0023998  -0.0001291   0.0010108
           13          14          15          16
    1  -0.0000080   0.0001255   0.0000146  -0.0007461
    2  -0.0000175   0.0005327  -0.0000241   0.0000801
    3  -0.0001054  -0.0005127   0.0000019   0.0002378
 Max gradient component =       4.857E-03
 RMS gradient           =       1.507E-03
 Gradient time:  CPU 1.95 s  wall 1.91 s
 Geometry Optimization Parameters
   NAtoms,    NIC,     NZ,  NCons,   NDum,   NFix, NCnnct, MaxDiis
       16     111       0       1       0       0       0       0

 Cartesian Hessian Update
 Hessian Updated using BFGS Update


** CONSTRAINED OPTIMIZATION IN DELOCALIZED INTERNAL COORDINATES **
   Searching for a Minimum

   Optimization Cycle:   4

                       Coordinates (Angstroms)
     ATOM                X               Y               Z
      1  S        -0.0174038353    0.0178192583    0.0285785627
      2  C         1.6944879430   -0.0700840854   -0.0169657926
      3  H         2.2536348328   -0.1409133708    0.9084617702
      4  C         2.2133675528   -0.0229623364   -1.3135478224
      5  H         3.2734065570   -0.0898861115   -1.5263408986
      6  C         1.2195079404    0.1027303895   -2.2796417501
      7  H         1.4076782115    0.1314512660   -3.3468289914
      8  C        -0.0877073261    0.1507491417   -1.7326893764
      9  C        -1.3159447927    0.1727999594   -2.4224295682
     10  C        -2.5660409740   -0.3422803582   -1.9951544722
     11  H        -2.7134662955   -0.7827175278   -1.0155500856
     12  C        -3.5553722634   -0.2584467653   -2.9703544100
     13  H        -4.5729017351   -0.6087052105   -2.8463795854
     14  C        -3.0907654454    0.3218221652   -4.1535471214
     15  H        -3.6633537723    0.5229926138   -5.0512674930
     16  S        -1.4318559676    0.7503660820   -4.0896836656
   Point Group: c1    Number of degrees of freedom:    42


   Energy is  -1104.569415524

              Constraints and their Current Values
                                        Value     Constraint
   Dihedral:        6   8   9  10      150.000      150.000
 Hessian Updated using BFGS Update

 41 Hessian modes will be used to form the next step
  Hessian Eigenvalues:
     0.020169    0.045000    0.045000    0.045000    0.045000    0.045001
     0.045002    0.045004    0.045004    0.045012    0.045058    0.045569
     0.159250    0.159946    0.159992    0.160000    0.160015    0.160505
     0.221280    0.221839    0.237837    0.249361    0.249991    0.290967
     0.294451    0.300172    0.312568    0.328416    0.354778    0.355033
     0.355128    0.355158    0.358269    0.358683    0.378355    0.404881
     0.427079    0.461473    0.463583    0.485762    0.497933

 Minimum Search - Taking Simple RFO Step
 Searching for Lamda that Minimizes Along All modes
 Value Taken    Lamda =  -0.00007294
 Step Taken.  Stepsize is  0.052158

                             Maximum     Tolerance    Cnvgd?
         Gradient           0.001599      0.000300      NO
         Displacement       0.031168      0.001200      NO
         Energy change     -0.000287      0.000001      NO


 New Cartesian Coordinates Obtained by Inverse Iteration

 Displacement from previous Coordinates is:  0.138775
 ----------------------------------------------------------------
             Standard Nuclear Orientation (Angstroms)
    I     Atom           X                Y                Z
 ----------------------------------------------------------------
    1      S      -0.0170840195     0.0099237856     0.0299083204
    2      C       1.6938350842    -0.0870056521    -0.0193258132
    3      H       2.2544382075    -0.1718145897     0.9040694403
    4      C       2.2119617056    -0.0237768354    -1.3152825186
    5      H       3.2715232364    -0.0928003288    -1.5296886089
    6      C       1.2170600122     0.1188820725    -2.2787506537
    7      H       1.4029310369     0.1594462799    -3.3460183461
    8      C      -0.0886187399     0.1664241747    -1.7296303788
    9      C      -1.3186008836     0.1881373499    -2.4179338927
   10      C      -2.5674468376    -0.3270894609    -1.9891995032
   11      H      -2.7154991615    -0.7566470535    -1.0048109041
   12      C      -3.5538685344    -0.2595380035    -2.9694697162
   13      H      -4.5705230999    -0.6122673917    -2.8454561689
   14      C      -3.0861348555     0.3059257637    -4.1583311231
   15      H      -3.6567418436     0.4936340651    -5.0602400356
   16      S      -1.4299606773     0.7433009342    -4.0931807974
 ----------------------------------------------------------------
 Nuclear Repulsion Energy =   629.7281135629 hartrees
 There are       43 alpha and       42 beta electrons
 Applying Cartesian multipole field
    Component          Value
    ---------          -----
     (2,0,0)        1.00000E-11
     (0,2,0)        2.00000E-11
     (0,0,2)       -3.00000E-11
 Nucleus-field energy     =    -0.0000000508 hartrees
 Requested basis set is 6-31++G(d,p)
 There are 76 shells and 234 basis functions
 A cutoff of  1.0D-12 yielded   2533 shell pairs
 There are     24941 function pairs

 Q-Chem warning in module /project/projectdirs/jcesr/qchem/qc44/cnl_qc441/compile/cori/qc_src/libqints/qchem/aobasis.C, line 68:

 Using reconstructed effective core potential

 Smallest overlap matrix eigenvalue = 8.48E-07
 Linear dependence detected in AO basis
 Number of orthogonalized atomic orbitals = 233
 Maximum deviation from orthogonality = 4.543E-11
 Guess MOs from SCF MO coefficient file
 Reading MOs from coefficient file
 Size of previous SCF MO coefficient file: 109510 (expected); 109980 (actual). 

 Q-Chem warning in module /project/projectdirs/jcesr/qchem/qc44/cnl_qc441/compile/cori/qc_src/gesman/GuessMan.C, line 722:

 Inconsistent size for SCF MO coefficient file.  Please check basis and PURECART setting.

 Reading MOs from coefficient file
 An unrestricted hybrid HF-DFT SCF calculation will be
 performed using Pulay DIIS extrapolation
 Exchange:     0.2000 Hartree-Fock + 0.0800 Slater + 0.7200 B88
 Correlation:  0.1900 VWN1RPA + 0.8100 LYP
 Using SG-1 standard quadrature grid
 SCF converges when DIIS error is below 1.0E-08
 Geometry optimization detected.  Setting ReadMinima to 0
 Setting SaveMinima to 0
 ---------------------------------------
  Cycle       Energy         DIIS Error
 ---------------------------------------
    1   -1104.5653585781      4.27E-04
    2   -1104.5694497002      3.06E-05
    3   -1104.5694478962      4.42E-05
    4   -1104.5694621708      1.60E-05
    5   -1104.5694641796      3.46E-06
    6   -1104.5694642566      1.97E-06
    7   -1104.5694642865      5.29E-07
    8   -1104.5694642875      1.54E-07
    9   -1104.5694642880      6.49E-08
   10   -1104.5694642878      2.99E-08
   11   -1104.5694642879      8.70E-09 Convergence criterion met
 ---------------------------------------
 <S^2> = 0.7668
 SCF time:  CPU 7.44 s  wall 7.10 s
 SCF   energy in the final basis set = -1104.5694642879
 Total energy in the final basis set = -1104.5694642879
 
 --------------------------------------------------------------
 
                    Orbital Energies (a.u.)
 --------------------------------------------------------------
 
 Alpha MOs
 -- Occupied --
-89.098 -89.098 -10.432 -10.431 -10.418 -10.418 -10.392 -10.392
-10.380 -10.380  -8.157  -8.157  -6.121  -6.121  -6.117  -6.117
 -6.114  -6.114  -1.086  -1.061  -0.958  -0.933  -0.921  -0.880
 -0.788  -0.758  -0.725  -0.712  -0.701  -0.650  -0.595  -0.594
 -0.589  -0.584  -0.579  -0.556  -0.552  -0.535  -0.520  -0.469
 -0.442  -0.436  -0.393
 -- Virtual --
 -0.246  -0.182  -0.160  -0.155  -0.130  -0.124  -0.115  -0.110
 -0.100  -0.096  -0.093  -0.091  -0.080  -0.074  -0.070  -0.056
 -0.049  -0.038  -0.033  -0.031  -0.023  -0.014  -0.012  -0.007
 -0.002   0.001   0.009   0.010   0.014   0.020   0.021   0.025
  0.027   0.034   0.037   0.041   0.043   0.051   0.051   0.052
  0.069   0.074   0.079   0.082   0.093   0.096   0.100   0.105
  0.105   0.122   0.124   0.133   0.133   0.140   0.149   0.152
  0.167   0.180   0.203   0.208   0.214   0.236   0.237   0.245
  0.296   0.310   0.361   0.363   0.381   0.394   0.410   0.424
  0.446   0.460   0.470   0.473   0.484   0.484   0.501   0.509
  0.540   0.550   0.563   0.571   0.579   0.581   0.607   0.614
  0.650   0.650   0.655   0.676   0.696   0.746   0.768   0.779
  0.785   0.794   0.806   0.815   0.820   0.837   0.841   0.850
  0.861   0.871   0.891   0.922   0.931   0.954   0.963   0.973
  0.996   1.010   1.045   1.084   1.092   1.147   1.162   1.166
  1.172   1.174   1.213   1.277   1.294   1.315   1.331   1.419
  1.491   1.512   1.541   1.641   1.658   1.685   1.727   1.731
  1.753   1.781   1.793   1.843   1.862   1.883   1.894   1.948
  1.964   2.002   2.005   2.043   2.053   2.080   2.153   2.196
  2.203   2.247   2.266   2.273   2.298   2.321   2.326   2.351
  2.353   2.393   2.406   2.423   2.488   2.519   2.543   2.565
  2.672   2.677   2.740   2.754   2.971   3.026   3.105   3.108
  3.223   3.245   3.549   3.568   3.797   3.804   4.057   4.091
  4.132   4.142   4.230   4.339   4.484   4.531
 
 Beta MOs
 -- Occupied --
-89.098 -89.098 -10.430 -10.429 -10.414 -10.414 -10.390 -10.390
-10.380 -10.380  -8.157  -8.157  -6.122  -6.122  -6.118  -6.118
 -6.115  -6.115  -1.080  -1.055  -0.951  -0.931  -0.919  -0.870
 -0.784  -0.754  -0.720  -0.709  -0.699  -0.647  -0.593  -0.587
 -0.584  -0.578  -0.576  -0.549  -0.539  -0.533  -0.519  -0.442
 -0.438  -0.432
 -- Virtual --
 -0.328  -0.225  -0.167  -0.157  -0.151  -0.125  -0.117  -0.112
 -0.100  -0.098  -0.094  -0.092  -0.090  -0.079  -0.073  -0.069
 -0.056  -0.047  -0.037  -0.032  -0.030  -0.021  -0.013  -0.011
 -0.007  -0.001   0.001   0.011   0.011   0.015   0.021   0.022
  0.027   0.029   0.036   0.037   0.042   0.044   0.051   0.052
  0.054   0.070   0.076   0.081   0.084   0.095   0.098   0.100
  0.105   0.107   0.123   0.125   0.134   0.134   0.141   0.150
  0.152   0.168   0.182   0.204   0.210   0.216   0.237   0.239
  0.248   0.297   0.311   0.362   0.364   0.382   0.396   0.412
  0.425   0.447   0.462   0.475   0.476   0.488   0.497   0.504
  0.516   0.543   0.553   0.564   0.573   0.587   0.588   0.609
  0.617   0.652   0.655   0.661   0.681   0.698   0.747   0.772
  0.780   0.786   0.799   0.808   0.817   0.822   0.837   0.843
  0.851   0.863   0.874   0.893   0.923   0.932   0.955   0.968
  0.978   1.000   1.014   1.050   1.088   1.094   1.149   1.166
  1.171   1.181   1.181   1.219   1.281   1.302   1.322   1.335
  1.424   1.502   1.526   1.552   1.647   1.661   1.692   1.728
  1.733   1.758   1.783   1.798   1.848   1.866   1.888   1.902
  1.954   1.973   2.011   2.013   2.048   2.066   2.086   2.160
  2.199   2.206   2.249   2.273   2.279   2.299   2.325   2.332
  2.355   2.355   2.398   2.411   2.427   2.490   2.523   2.547
  2.569   2.675   2.681   2.742   2.756   2.972   3.027   3.105
  3.108   3.225   3.247   3.550   3.570   3.797   3.805   4.063
  4.098   4.136   4.144   4.236   4.346   4.488   4.535
 --------------------------------------------------------------
 
          Ground-State Mulliken Net Atomic Charges

     Atom                 Charge (a.u.)    Spin (a.u.)
  --------------------------------------------------------
      1 S                     0.043504      -0.047160
      2 C                     0.095390       0.326521
      3 H                     0.249967      -0.016724
      4 C                    -0.363888      -0.033984
      5 H                     0.173034       0.000690
      6 C                     0.393520       0.156366
      7 H                     0.161367      -0.009334
      8 C                    -0.254208       0.123411
      9 C                    -0.252712       0.124355
     10 C                     0.396514       0.155874
     11 H                     0.161754      -0.009354
     12 C                    -0.365770      -0.033874
     13 H                     0.172957       0.000690
     14 C                     0.096083       0.326406
     15 H                     0.249981      -0.016721
     16 S                     0.042508      -0.047161
  --------------------------------------------------------
  Sum of atomic charges =     1.000000
  Sum of spin   charges =     1.000000

 -----------------------------------------------------------------
                    Cartesian Multipole Moments
 -----------------------------------------------------------------
    Charge (ESU x 10^10)
                 4.8032
    Dipole Moment (Debye)
         X      -3.2943      Y       0.0118      Z     -10.1416
       Tot      10.6633
    Quadrupole Moments (Debye-Ang)
        XX     -31.3851     XY       0.6587     YY     -71.8216
        XZ      22.5299     YZ      -3.7619     ZZ     -26.2319
    Octopole Moments (Debye-Ang^2)
       XXX      72.8263    XXY     -17.6159    XYY      46.9763
       YYY     -27.6606    XXZ      40.5617    XYZ       4.6592
       YYZ     148.1834    XZZ     -45.8384    YZZ      11.6899
       ZZZ     254.1978
    Hexadecapole Moments (Debye-Ang^3)
      XXXX   -1147.6773   XXXY      58.3956   XXYY    -308.2854
      XYYY      27.2279   YYYY    -144.1030   XXXZ    -329.1331
      XXYZ      35.4756   XYYZ    -222.3025   YYYZ     126.9362
      XXZZ    -333.9326   XYZZ     -35.3256   YYZZ    -513.8973
      XZZZ    -193.0945   YZZZ      13.6819   ZZZZ   -2063.8334
 -----------------------------------------------------------------
 Calculating analytic gradient of the SCF energy
 Gradient of SCF Energy
            1           2           3           4           5           6
    1   0.0006926  -0.0004229   0.0000491  -0.0001352   0.0000243   0.0007412
    2   0.0000114  -0.0000823   0.0000428   0.0001764  -0.0000629  -0.0048151
    3  -0.0002622   0.0005191  -0.0000448  -0.0005718   0.0001343   0.0003566
            7           8           9          10          11          12
    1  -0.0001770  -0.0003223  -0.0006018   0.0001702   0.0002288   0.0001183
    2  -0.0002529   0.0053083   0.0042310  -0.0043026  -0.0002505  -0.0000797
    3  -0.0000457  -0.0013083   0.0033656  -0.0022911  -0.0000657   0.0005867
           13          14          15          16
    1  -0.0000152   0.0004305  -0.0000630  -0.0007174
    2  -0.0000141   0.0002409   0.0000264  -0.0001770
    3  -0.0001576  -0.0004609   0.0000568   0.0001889
 Max gradient component =       5.308E-03
 RMS gradient           =       1.516E-03
 Gradient time:  CPU 1.90 s  wall 1.91 s
 Geometry Optimization Parameters
   NAtoms,    NIC,     NZ,  NCons,   NDum,   NFix, NCnnct, MaxDiis
       16     111       0       1       0       0       0       0

 Cartesian Hessian Update
 Hessian Updated using BFGS Update


** CONSTRAINED OPTIMIZATION IN DELOCALIZED INTERNAL COORDINATES **
   Searching for a Minimum

   Optimization Cycle:   5

                       Coordinates (Angstroms)
     ATOM                X               Y               Z
      1  S        -0.0170840195    0.0099237856    0.0299083204
      2  C         1.6938350842   -0.0870056521   -0.0193258132
      3  H         2.2544382075   -0.1718145897    0.9040694403
      4  C         2.2119617056   -0.0237768354   -1.3152825186
      5  H         3.2715232364   -0.0928003288   -1.5296886089
      6  C         1.2170600122    0.1188820725   -2.2787506537
      7  H         1.4029310369    0.1594462799   -3.3460183461
      8  C        -0.0886187399    0.1664241747   -1.7296303788
      9  C        -1.3186008836    0.1881373499   -2.4179338927
     10  C        -2.5674468376   -0.3270894609   -1.9891995032
     11  H        -2.7154991615   -0.7566470535   -1.0048109041
     12  C        -3.5538685344   -0.2595380035   -2.9694697162
     13  H        -4.5705230999   -0.6122673917   -2.8454561689
     14  C        -3.0861348555    0.3059257637   -4.1583311231
     15  H        -3.6567418436    0.4936340651   -5.0602400356
     16  S        -1.4299606773    0.7433009342   -4.0931807974
   Point Group: c1    Number of degrees of freedom:    42


   Energy is  -1104.569464288

              Constraints and their Current Values
                                        Value     Constraint
   Dihedral:        6   8   9  10      150.000      150.000
 Hessian Updated using BFGS Update

 41 Hessian modes will be used to form the next step
  Hessian Eigenvalues:
     0.015853    0.044400    0.045000    0.045000    0.045000    0.045000
     0.045002    0.045003    0.045004    0.045008    0.045012    0.045377
     0.159309    0.159922    0.159947    0.159992    0.160000    0.161325
     0.221277    0.221409    0.237840    0.245551    0.249955    0.280658
     0.294452    0.298030    0.302324    0.312569    0.354779    0.355020
     0.355129    0.355175    0.358269    0.358726    0.380767    0.404883
     0.429419    0.451131    0.463585    0.485710    0.497933

 Minimum Search - Taking Simple RFO Step
 Searching for Lamda that Minimizes Along All modes
 Value Taken    Lamda =  -0.00002377
 Step Taken.  Stepsize is  0.029751

                             Maximum     Tolerance    Cnvgd?
         Gradient           0.001024      0.000300      NO
         Displacement       0.018983      0.001200      NO
         Energy change     -0.000049      0.000001      NO


 New Cartesian Coordinates Obtained by Inverse Iteration

 Displacement from previous Coordinates is:  0.077295
 ----------------------------------------------------------------
             Standard Nuclear Orientation (Angstroms)
    I     Atom           X                Y                Z
 ----------------------------------------------------------------
    1      S      -0.0180073915     0.0055885747     0.0304786542
    2      C       1.6932537436    -0.0960368557    -0.0211293628
    3      H       2.2541400043    -0.1887107262     0.9013750338
    4      C       2.2107476634    -0.0247178825    -1.3163993097
    5      H       3.2699154318    -0.0935417117    -1.5327582410
    6      C       1.2152367542     0.1268263930    -2.2785903575
    7      H       1.4016162290     0.1764870448    -3.3453666779
    8      C      -0.0889390136     0.1739988761    -1.7281882502
    9      C      -1.3201616011     0.1955033597    -2.4155217163
   10      C      -2.5676865960    -0.3196573091    -1.9859576878
   11      H      -2.7184198213    -0.7410361425    -0.9984707743
   12      C      -3.5525251470    -0.2605206168    -2.9690758968
   13      H      -4.5687892963    -0.6138465100    -2.8436313661
   14      C      -3.0832810829     0.2972539873    -4.1604189582
   15      H      -3.6521562976     0.4776716789    -5.0649256621
   16      S      -1.4276729490     0.7394729499    -4.0947601272
[...]
    7   -1104.5694804945      1.38E-08
    8   -1104.5694804948      6.50E-09 Convergence criterion met
 ---------------------------------------
 <S^2> = 0.7668
 SCF time:  CPU 5.31 s  wall 5.06 s
 SCF   energy in the final basis set = -1104.5694804948
 Total energy in the final basis set = -1104.5694804948
 
 --------------------------------------------------------------
 
                    Orbital Energies (a.u.)
 --------------------------------------------------------------
 
 Alpha MOs
 -- Occupied --
-89.098 -89.098 -10.432 -10.431 -10.418 -10.418 -10.392 -10.392
-10.380 -10.380  -8.157  -8.157  -6.121  -6.121  -6.117  -6.117
 -6.114  -6.114  -1.086  -1.061  -0.958  -0.933  -0.921  -0.880
 -0.788  -0.758  -0.725  -0.712  -0.701  -0.650  -0.595  -0.594
 -0.588  -0.585  -0.579  -0.555  -0.552  -0.535  -0.520  -0.469
 -0.442  -0.436  -0.393
 -- Virtual --
 -0.246  -0.182  -0.161  -0.155  -0.130  -0.124  -0.114  -0.110
 -0.100  -0.096  -0.093  -0.091  -0.080  -0.074  -0.070  -0.056
 -0.049  -0.038  -0.033  -0.031  -0.023  -0.014  -0.012  -0.007
 -0.002   0.001   0.009   0.010   0.014   0.020   0.021   0.025
  0.027   0.034   0.037   0.041   0.043   0.051   0.051   0.052
  0.069   0.074   0.080   0.082   0.093   0.096   0.100   0.105
  0.106   0.122   0.124   0.133   0.133   0.140   0.149   0.152
  0.167   0.180   0.203   0.208   0.214   0.236   0.237   0.245
  0.297   0.310   0.361   0.363   0.381   0.395   0.410   0.424
  0.445   0.460   0.470   0.472   0.484   0.484   0.500   0.509
  0.541   0.549   0.563   0.572   0.578   0.581   0.608   0.615
  0.650   0.651   0.655   0.676   0.697   0.746   0.767   0.779
  0.784   0.794   0.805   0.816   0.821   0.837   0.841   0.850
  0.861   0.871   0.890   0.922   0.931   0.953   0.963   0.973
  0.995   1.010   1.046   1.085   1.092   1.148   1.163   1.164
  1.171   1.174   1.214   1.275   1.297   1.312   1.329   1.422
  1.489   1.511   1.540   1.642   1.659   1.684   1.727   1.731
  1.753   1.780   1.792   1.844   1.862   1.883   1.894   1.949
  1.964   2.001   2.003   2.043   2.053   2.080   2.154   2.195
  2.203   2.246   2.266   2.274   2.298   2.321   2.326   2.351
  2.352   2.393   2.406   2.423   2.487   2.519   2.543   2.565
  2.673   2.676   2.741   2.754   2.971   3.026   3.105   3.108
  3.223   3.245   3.549   3.568   3.797   3.804   4.057   4.091
  4.133   4.142   4.229   4.340   4.484   4.531
 
 Beta MOs
 -- Occupied --
-89.098 -89.098 -10.430 -10.429 -10.414 -10.414 -10.390 -10.390
-10.380 -10.380  -8.157  -8.157  -6.122  -6.122  -6.118  -6.118
 -6.114  -6.114  -1.080  -1.055  -0.951  -0.931  -0.919  -0.870
 -0.784  -0.754  -0.720  -0.710  -0.699  -0.647  -0.593  -0.587
 -0.584  -0.578  -0.577  -0.549  -0.539  -0.534  -0.519  -0.442
 -0.438  -0.432
 -- Virtual --
 -0.328  -0.225  -0.167  -0.157  -0.151  -0.125  -0.117  -0.112
 -0.100  -0.098  -0.095  -0.092  -0.090  -0.079  -0.073  -0.069
 -0.056  -0.047  -0.037  -0.032  -0.030  -0.021  -0.013  -0.010
 -0.007  -0.002   0.001   0.011   0.011   0.015   0.021   0.022
  0.027   0.029   0.036   0.037   0.042   0.044   0.052   0.052
  0.054   0.070   0.076   0.081   0.084   0.096   0.098   0.100
  0.105   0.107   0.123   0.125   0.134   0.134   0.141   0.151
  0.152   0.168   0.182   0.204   0.210   0.216   0.236   0.239
  0.248   0.298   0.312   0.361   0.364   0.382   0.396   0.412
  0.426   0.446   0.461   0.475   0.475   0.488   0.497   0.503
  0.516   0.543   0.553   0.564   0.574   0.587   0.587   0.610
  0.617   0.653   0.655   0.661   0.681   0.698   0.747   0.772
  0.780   0.786   0.799   0.807   0.818   0.822   0.838   0.843
  0.851   0.863   0.873   0.892   0.923   0.932   0.955   0.967
  0.978   1.000   1.015   1.050   1.089   1.095   1.150   1.167
  1.170   1.180   1.181   1.219   1.279   1.305   1.319   1.333
  1.427   1.500   1.525   1.551   1.647   1.662   1.691   1.728
  1.733   1.758   1.782   1.797   1.849   1.867   1.888   1.903
  1.955   1.973   2.009   2.013   2.048   2.066   2.086   2.160
  2.199   2.206   2.249   2.273   2.279   2.299   2.325   2.332
  2.354   2.355   2.399   2.411   2.427   2.490   2.523   2.547
  2.570   2.675   2.680   2.742   2.757   2.972   3.027   3.105
  3.108   3.225   3.247   3.550   3.570   3.797   3.805   4.063
  4.098   4.136   4.144   4.236   4.347   4.488   4.535
 --------------------------------------------------------------
 
          Ground-State Mulliken Net Atomic Charges

     Atom                 Charge (a.u.)    Spin (a.u.)
  --------------------------------------------------------
      1 S                     0.042668      -0.047303
      2 C                     0.094069       0.326343
      3 H                     0.249849      -0.016689
      4 C                    -0.363276      -0.034296
      5 H                     0.172982       0.000682
      6 C                     0.390126       0.156734
      7 H                     0.160777      -0.009355
      8 C                    -0.248725       0.123738
      9 C                    -0.246554       0.124532
     10 C                     0.393726       0.156265
     11 H                     0.161265      -0.009372
     12 C                    -0.365562      -0.034159
     13 H                     0.172911       0.000682
     14 C                     0.094806       0.326184
     15 H                     0.249866      -0.016682
     16 S                     0.041073      -0.047303
  --------------------------------------------------------
  Sum of atomic charges =     1.000000
  Sum of spin   charges =     1.000000

 -----------------------------------------------------------------
                    Cartesian Multipole Moments
 -----------------------------------------------------------------
    Charge (ESU x 10^10)
                 4.8032
    Dipole Moment (Debye)
         X      -3.2929      Y       0.0029      Z     -10.1430
       Tot      10.6642
    Quadrupole Moments (Debye-Ang)
        XX     -31.4098     XY       0.6819     YY     -71.8571
        XZ      22.4628     YZ      -3.7608     ZZ     -26.2057
    Octopole Moments (Debye-Ang^2)
       XXX      72.9195    XXY     -17.8046    XYY      47.1383
       YYY     -27.4448    XXZ      40.7640    XYZ       4.1778
       YYZ     148.3241    XZZ     -45.7420    YZZ      11.4474
       ZZZ     253.8285
    Hexadecapole Moments (Debye-Ang^3)
      XXXX   -1147.1655   XXXY      58.8634   XXYY    -308.2362
      XYYY      26.9918   YYYY    -143.5450   XXXZ    -330.0205
      XXYZ      36.4627   XYYZ    -222.5790   YYYZ     126.8118
      XXZZ    -334.5093   XYZZ     -33.2494   YYZZ    -514.5772
      XZZZ    -192.1163   YZZZ      15.1921   ZZZZ   -2061.6846
 -----------------------------------------------------------------
 Calculating analytic gradient of the SCF energy
 Gradient of SCF Energy
            1           2           3           4           5           6
    1  -0.0000482   0.0000360   0.0000007   0.0000055   0.0000001  -0.0002039
    2  -0.0000192  -0.0000285  -0.0000025  -0.0000084   0.0000217  -0.0051484
    3   0.0000115  -0.0000322  -0.0000004   0.0000358  -0.0000116   0.0000852
            7           8           9          10          11          12
    1   0.0000100   0.0010143  -0.0020126   0.0011895  -0.0000014  -0.0000013
    2  -0.0000038   0.0055852   0.0041928  -0.0045479  -0.0000445  -0.0000058
    3   0.0000015  -0.0015178   0.0036064  -0.0021560  -0.0000169  -0.0000413
           13          14          15          16
    1   0.0000009  -0.0000330  -0.0000034   0.0000467
    2  -0.0000051  -0.0000300   0.0000207   0.0000236
    3   0.0000093   0.0000212   0.0000072  -0.0000018
 Max gradient component =       5.585E-03
 RMS gradient           =       1.597E-03
 Gradient time:  CPU 1.93 s  wall 1.90 s
 Geometry Optimization Parameters
   NAtoms,    NIC,     NZ,  NCons,   NDum,   NFix, NCnnct, MaxDiis
       16     111       0       1       0       0       0       0

 Cartesian Hessian Update
 Hessian Updated using BFGS Update


** CONSTRAINED OPTIMIZATION IN DELOCALIZED INTERNAL COORDINATES **
   Searching for a Minimum

   Optimization Cycle:   8

                       Coordinates (Angstroms)
     ATOM                X               Y               Z
      1  S        -0.0181276165    0.0047937862    0.0305655481
      2  C         1.6934992134   -0.0972983655   -0.0214003356
      3  H         2.2539250823   -0.1919527071    0.9011857069
      4  C         2.2106224511   -0.0253860136   -1.3166107598
      5  H         3.2696789040   -0.0933203351   -1.5338577589
      6  C         1.2150507287    0.1273796533   -2.2786722209
      7  H         1.4028340869    0.1814868208   -3.3449870510
      8  C        -0.0889377267    0.1744634964   -1.7281843045
      9  C        -1.3203209760    0.1959826027   -2.4152213293
     10  C        -2.5676742616   -0.3191300612   -1.9856230799
     11  H        -2.7207343619   -0.7365342135   -0.9968092713
     12  C        -3.5522660461   -0.2611722269   -2.9691902200
     13  H        -4.5685294852   -0.6141651735   -2.8426845314
     14  C        -3.0832023023    0.2959490832   -4.1607169739
     15  H        -3.6512088169    0.4748039463   -5.0660770898
     16  S        -1.4273382431    0.7388348177   -4.0950570286
   Point Group: c1    Number of degrees of freedom:    42


   Energy is  -1104.569480495

              Constraints and their Current Values
                                        Value     Constraint
   Dihedral:        6   8   9  10      150.000      150.000
 Hessian Updated using BFGS Update

 41 Hessian modes will be used to form the next step
  Hessian Eigenvalues:
     0.014784    0.021502    0.044933    0.045000    0.045000    0.045000
     0.045002    0.045003    0.045004    0.045009    0.045012    0.045266
     0.158934    0.159931    0.159949    0.159992    0.160000    0.162823
     0.221284    0.221925    0.237846    0.246517    0.249974    0.282998
     0.294453    0.299997    0.304782    0.312571    0.354778    0.355018
     0.355129    0.355174    0.358269    0.358718    0.380587    0.404889
     0.427981    0.452378    0.463589    0.485772    0.497934

 Minimum Search - Taking Simple RFO Step
 Searching for Lamda that Minimizes Along All modes
 Value Taken    Lamda =   0.00000000
 Step Taken.  Stepsize is  0.001550

                             Maximum     Tolerance    Cnvgd?
         Gradient           0.000083      0.000300     YES
         Displacement       0.000885      0.001200     YES
         Energy change     -0.000000      0.000001     YES

 Final energy is   -1104.56948049479     


 ******************************
 **  OPTIMIZATION CONVERGED  **
 ******************************

                       Coordinates (Angstroms)
     ATOM                X               Y               Z
      1  S        -0.0181276165    0.0047937862    0.0305655481
      2  C         1.6934992134   -0.0972983655   -0.0214003356
      3  H         2.2539250823   -0.1919527071    0.9011857069
      4  C         2.2106224511   -0.0253860136   -1.3166107598
      5  H         3.2696789040   -0.0933203351   -1.5338577589
      6  C         1.2150507287    0.1273796533   -2.2786722209
      7  H         1.4028340869    0.1814868208   -3.3449870510
      8  C        -0.0889377267    0.1744634964   -1.7281843045
      9  C        -1.3203209760    0.1959826027   -2.4152213293
     10  C        -2.5676742616   -0.3191300612   -1.9856230799
     11  H        -2.7207343619   -0.7365342135   -0.9968092713
     12  C        -3.5522660461   -0.2611722269   -2.9691902200
     13  H        -4.5685294852   -0.6141651735   -2.8426845314
     14  C        -3.0832023023    0.2959490832   -4.1607169739
     15  H        -3.6512088169    0.4748039463   -5.0660770898
     16  S        -1.4273382431    0.7388348177   -4.0950570286

Z-matrix Print:
$molecule
1 2
S 
C  1 1.715326
H  2 1.083650 1 119.693255
C  2 1.396474 1 113.240578 3 -179.121103 0
H  4 1.083235 2 123.009297 1 -178.755116 0
C  4 1.392905 2 112.436909 1 0.632818 0
H  6 1.084162 4 124.073191 2 -178.592036 0
C  6 1.416258 4 113.155962 2 -0.066894 0
C  8 1.410244 6 128.003418 4 -173.430246 0
C  9 1.416206 8 127.960713 6 150.000000 0
H  10 1.084074 9 122.695426 8 5.005865 0
C  10 1.392861 9 113.159626 8 -173.588022 0
H  12 1.083241 10 124.552691 9 179.344373 0
C  12 1.396481 10 112.431963 9 -0.018587 0
H  14 1.083606 12 127.059447 10 -178.455507 0
S  14 1.715456 12 113.235379 10 0.606290 0
$end

 
 --------------------------------------------------------------
 
                    Orbital Energies (a.u.)
 --------------------------------------------------------------
 
 Alpha MOs
 -- Occupied --
-89.098 -89.098 -10.432 -10.431 -10.418 -10.418 -10.392 -10.392
-10.380 -10.380  -8.157  -8.157  -6.121  -6.121  -6.117  -6.117
 -6.114  -6.114  -1.086  -1.061  -0.958  -0.933  -0.921  -0.880
 -0.788  -0.758  -0.725  -0.712  -0.701  -0.650  -0.595  -0.594
 -0.588  -0.585  -0.579  -0.555  -0.552  -0.535  -0.520  -0.469
 -0.442  -0.436  -0.393
 -- Virtual --
 -0.246  -0.182  -0.161  -0.155  -0.130  -0.124  -0.114  -0.110
 -0.100  -0.096  -0.093  -0.091  -0.080  -0.074  -0.070  -0.056
 -0.049  -0.038  -0.033  -0.031  -0.023  -0.014  -0.012  -0.007
 -0.002   0.001   0.009   0.010   0.014   0.020   0.021   0.025
  0.027   0.034   0.037   0.041   0.043   0.051   0.051   0.052
  0.069   0.074   0.080   0.082   0.093   0.096   0.100   0.105
  0.106   0.122   0.124   0.133   0.133   0.140   0.149   0.152
  0.167   0.180   0.203   0.208   0.214   0.236   0.237   0.245
  0.297   0.310   0.361   0.363   0.381   0.395   0.410   0.424
  0.445   0.460   0.470   0.472   0.484   0.484   0.500   0.509
  0.541   0.549   0.563   0.572   0.578   0.581   0.608   0.615
  0.650   0.651   0.655   0.676   0.697   0.746   0.767   0.779
  0.784   0.794   0.805   0.816   0.821   0.837   0.841   0.850
  0.861   0.871   0.890   0.922   0.931   0.953   0.963   0.973
  0.995   1.010   1.046   1.085   1.092   1.148   1.163   1.164
  1.171   1.174   1.214   1.275   1.297   1.312   1.329   1.422
  1.489   1.511   1.540   1.642   1.659   1.684   1.727   1.731
  1.753   1.780   1.792   1.844   1.862   1.883   1.894   1.949
  1.964   2.001   2.003   2.043   2.053   2.080   2.154   2.195
  2.203   2.246   2.266   2.274   2.298   2.321   2.326   2.351
  2.352   2.393   2.406   2.423   2.487   2.519   2.543   2.565
  2.673   2.676   2.741   2.754   2.971   3.026   3.105   3.108
  3.223   3.245   3.549   3.568   3.797   3.804   4.057   4.091
  4.133   4.142   4.229   4.340   4.484   4.531
 
 Beta MOs
 -- Occupied --
-89.098 -89.098 -10.430 -10.429 -10.414 -10.414 -10.390 -10.390
-10.380 -10.380  -8.157  -8.157  -6.122  -6.122  -6.118  -6.118
 -6.114  -6.114  -1.080  -1.055  -0.951  -0.931  -0.919  -0.870
 -0.784  -0.754  -0.720  -0.710  -0.699  -0.647  -0.593  -0.587
 -0.584  -0.578  -0.577  -0.549  -0.539  -0.534  -0.519  -0.442
 -0.438  -0.432
 -- Virtual --
 -0.328  -0.225  -0.167  -0.157  -0.151  -0.125  -0.117  -0.112
 -0.100  -0.098  -0.095  -0.092  -0.090  -0.079  -0.073  -0.069
 -0.056  -0.047  -0.037  -0.032  -0.030  -0.021  -0.013  -0.010
 -0.007  -0.002   0.001   0.011   0.011   0.015   0.021   0.022
  0.027   0.029   0.036   0.037   0.042   0.044   0.052   0.052
  0.054   0.070   0.076   0.081   0.084   0.096   0.098   0.100
  0.105   0.107   0.123   0.125   0.134   0.134   0.141   0.151
  0.152   0.168   0.182   0.204   0.210   0.216   0.236   0.239
  0.248   0.298   0.312   0.361   0.364   0.382   0.396   0.412
  0.426   0.446   0.461   0.475   0.475   0.488   0.497   0.503
  0.516   0.543   0.553   0.564   0.574   0.587   0.587   0.610
  0.617   0.653   0.655   0.661   0.681   0.698   0.747   0.772
  0.780   0.786   0.799   0.807   0.818   0.822   0.838   0.843
  0.851   0.863   0.873   0.892   0.923   0.932   0.955   0.967
  0.978   1.000   1.015   1.050   1.089   1.095   1.150   1.167
  1.170   1.180   1.181   1.219   1.279   1.305   1.319   1.333
  1.427   1.500   1.525   1.551   1.647   1.662   1.691   1.728
  1.733   1.758   1.782   1.797   1.849   1.867   1.888   1.903
  1.955   1.973   2.009   2.013   2.048   2.066   2.086   2.160
  2.199   2.206   2.249   2.273   2.279   2.299   2.325   2.332
  2.354   2.355   2.399   2.411   2.427   2.490   2.523   2.547
  2.570   2.675   2.680   2.742   2.757   2.972   3.027   3.105
  3.108   3.225   3.247   3.550   3.570   3.797   3.805   4.063
  4.098   4.136   4.144   4.236   4.347   4.488   4.535
 --------------------------------------------------------------
 
          Ground-State Mulliken Net Atomic Charges

     Atom                 Charge (a.u.)    Spin (a.u.)
  --------------------------------------------------------
      1 S                     0.042668      -0.047303
      2 C                     0.094069       0.326343
      3 H                     0.249849      -0.016689
      4 C                    -0.363276      -0.034296
      5 H                     0.172982       0.000682
      6 C                     0.390126       0.156734
      7 H                     0.160777      -0.009355
      8 C                    -0.248725       0.123738
      9 C                    -0.246554       0.124532
     10 C                     0.393726       0.156265
     11 H                     0.161265      -0.009372
     12 C                    -0.365562      -0.034159
     13 H                     0.172911       0.000682
     14 C                     0.094806       0.326184
     15 H                     0.249866      -0.016682
     16 S                     0.041073      -0.047303
  --------------------------------------------------------
  Sum of atomic charges =     1.000000
  Sum of spin   charges =     1.000000

 -----------------------------------------------------------------
                    Cartesian Multipole Moments
 -----------------------------------------------------------------
    Charge (ESU x 10^10)
                 4.8032
    Dipole Moment (Debye)
         X      -3.2929      Y       0.0029      Z     -10.1430
       Tot      10.6642
    Quadrupole Moments (Debye-Ang)
        XX     -31.4098     XY       0.6819     YY     -71.8571
        XZ      22.4628     YZ      -3.7608     ZZ     -26.2057
    Octopole Moments (Debye-Ang^2)
       XXX      72.9195    XXY     -17.8046    XYY      47.1383
       YYY     -27.4448    XXZ      40.7640    XYZ       4.1778
       YYZ     148.3241    XZZ     -45.7420    YZZ      11.4474
       ZZZ     253.8285
    Hexadecapole Moments (Debye-Ang^3)
      XXXX   -1147.1655   XXXY      58.8634   XXYY    -308.2362
      XYYY      26.9918   YYYY    -143.5450   XXXZ    -330.0205
      XXYZ      36.4627   XYYZ    -222.5790   YYYZ     126.8118
      XXZZ    -334.5093   XYZZ     -33.2494   YYZZ    -514.5772
      XZZZ    -192.1163   YZZZ      15.1921   ZZZZ   -2061.6846
 -----------------------------------------------------------------
Archival summary:
1\1\nid00798\OPT\ProcedureUnspecified\BasisUnspecified\286(1+,2)\bwood\WedMay3102:27:212017WedMay3102:27:212017\0\\#,OPT,ProcedureUnspecified,BasisUnspecified,\\1,2\S\C,1,1.71533\H,2,1.08365,1,119.693\C,2,1.39647,1,113.241,3,-179.121,0\H,4,1.08324,2,123.009,1,-178.755,0\C,4,1.39291,2,112.437,1,0.632818,0\H,6,1.08416,4,124.073,2,-178.592,0\C,6,1.41626,4,113.156,2,-0.0668941,0\C,8,1.41024,6,128.003,4,-173.43,0\C,9,1.41621,8,127.961,6,150,0\H,10,1.08407,9,122.695,8,5.00586,0\C,10,1.39286,9,113.16,8,-173.588,0\H,12,1.08324,10,124.553,9,179.344,0\C,12,1.39648,10,112.432,9,-0.0185871,0\H,14,1.08361,12,127.059,10,-178.456,0\S,14,1.71546,12,113.235,10,0.60629,0\\\@

 Total job time:  85.42s(wall), 84.96s(cpu) 
 Wed May 31 02:27:21 2017

        *************************************************************
        *                                                           *
        *  Thank you very much for using Q-Chem.  Have a nice day.  *
        *                                                           *
        *************************************************************


0 sent ACK to 0 
now end server 0 ... 
