srun -N 1 --ntasks-per-node 16 --cpus-per-task 4 --cpu_bind=cores --nodelist nid00867 /global/project/projectdirs/jcesr/qchem/qc44/cnl_qc441/dist/exe/qcprog.cori.haswell.exe .pt_n2_cation_-130.0.in.26272.qcin.1 /global/cscratch1/sd/bwood/qchem/nx/qchem26272/
Process 1 of 16 is on nid00867 - thread support 0
Process 2 of 16 is on nid00867 - thread support 0
Process 3 of 16 is on nid00867 - thread support 0
Process 4 of 16 is on nid00867 - thread support 0
Process 5 of 16 is on nid00867 - thread support 0
Process 6 of 16 is on nid00867 - thread support 0
Process 0 of 16 is on nid00867 - thread support 0
initial socket setup ...start
Process 15 of 16 is on nid00867 - thread support 0
initial socket setup ...done 
now start server 0 ... 
nid00867 10.128.3
Q-Chem Developer Version! Running on 10.128.3.*
                  Welcome to Q-Chem
     A Quantum Leap Into The Future Of Chemistry


 Q-Chem 4.4, Q-Chem, Inc., Pleasanton, CA (2016)

 Y. Shao,  Z. Gan,  E. Epifanovsky,  A. T. B. Gilbert,  M. Wormit,  
 J. Kussmann,  A. W. Lange,  A. Behn,  J. Deng,  X. Feng,  D. Ghosh,  
 M. Goldey,  P. R. Horn,  L. D. Jacobson,  I. Kaliman,  F. Rob,  
 R. Z. Khaliullin,  T. Kus,  A. Landau,  J. Liu,  E. I. Proynov,  Y. M. Rhee,  
 R. M. Richard,  M. A. Rohrdanz,  R. P. Steele,  E. J. Sundstrom,  
 H. L. Woodcock III,  P. M. Zimmerman,  D. Zuev,  B. Albrecht,  E. Alguire,  
 B. Austin,  S. A. Baeppler,  G. J. O. Beran,  Y. A. Bernard,  
 E. J. Berquist,  K. Brandhorst,  K. B. Bravaya,  S. T. Brown,  D. Casanova,  
 C.-M. Chang,  Y. Chen,  S. H. Chien,  K. D. Closser,  M. P. Coons,  
 D. L. Crittenden,  S. Dasgupta,  M. Diedenhofen,  R. A. DiStasio Jr.,  
 H. Do,  A. D. Dutoi,  R. G. Edgar,  P.-T. Fang,  S. Fatehi,  Q. Feng,  
 L. Fusti-Molnar,  A. Ghysels,  A. Golubeva-Zadorozhnaya,  J. Gomes,  
 A. Gunina,  M. W. D. Hanson-Heine,  P. H. P. Harbach,  A. W. Hauser,  
 J. E. Herr,  E. G. Hohenstein,  Z. C. Holden,  K. Hui,  T.-C. Jagau,  H. Ji,  
 B. Kaduk,  K. Khistyaev,  Jaehoon Kim,  Jihan Kim,  R. A. King,  
 P. Klunzinger,  K. Koh,  D. Kosenkov,  T. Kowalczyk,  C. M. Krauter,  
 A. Kunitsa,  K. U. Lao,  A. Laurent,  K. V. Lawler,  J. Lee,  D. Lefrancois,  
 S. Lehtola,  S. V. Levchenko,  C. Y. Lin,  Y.-S. Lin,  F. Liu,  E. Livshits,  
 R. C. Lochan,  A. Luenser,  P. Manohar,  S. F. Manzer,  S.-P. Mao,  Y. Mao,  
 N. Mardirossian,  A. V. Marenich,  L. A. Martinez-Martinez,  S. A. Maurer,  
 N. J. Mayhall,  J.-M. Mewes,  A. F. Morrison,  K. Nanda,  T. S. Nguyen-Beck,  
 C. M. Oana,  R. Olivares-Amaya,  D. P. O'Neill,  J. A. Parkhill,  
 T. M. Perrine,  R. Peverati,  P. A. Pieniazek,  F. Plasser,  A. Prociuk,  
 D. R. Rehn,  E. Rosta,  N. J. Russ,  N. Sergueev,  S. M. Sharada,  
 S. Sharma,  D. W. Small,  A. Sodt,  T. Stauch,  T. Stein,  D. Stuck,  
 Y.-C. Su,  A. J. W. Thom,  T. Tsuchimochi,  L. Vogt,  O. Vydrov,  T. Wang,  
 M. A. Watson,  J. Wenzel,  A. White,  C. F. Williams,  V. Vanovschi,  
 K. Yao,  S. Yeganeh,  S. R. Yost,  Z.-Q. You,  I. Y. Zhang,  X. Zhang,  
 Y. Zhao,  B. R. Brooks,  G. K. L. Chan,  D. M. Chipman,  C. J. Cramer,  
 W. A. Goddard III,  M. S. Gordon,  W. J. Hehre,  A. Klamt,  
 H. F. Schaefer III,  M. W. Schmidt,  C. D. Sherrill,  D. G. Truhlar,  
 A. Warshel,  X. Xu,  A. Aspuru-Guzik,  R. Baer,  A. T. Bell,  N. A. Besley,  
 J.-D. Chai,  A. Dreuw,  B. D. Dunietz,  T. R. Furlani,  S. R. Gwaltney,  
 C.-P. Hsu,  Y. Jung,  J. Kong,  D. S. Lambrecht,  W. Liang,  C. Ochsenfeld,  
 V. A. Rassolov,  L. V. Slipchenko,  J. E. Subotnik,  T. Van Voorhis,  
 J. M. Herbert,  A. I. Krylov,  P. M. W. Gill,  M. Head-Gordon

 Contributors to earlier versions of Q-Chem not listed above: 
 R. D. Adamson,  J. Baker,  E. F. C. Byrd,  A. K. Chakraborty,  C.-L. Cheng,  
 H. Dachsel,  R. J. Doerksen,  G. Hawkins,  A. Heyden,  S. Hirata,  
 G. Kedziora,  F. J. Keil,  C. Kelley,  P. P. Korambath,  W. Kurlancheek,  
 A. M. Lee,  M. S. Lee,  D. Liotard,  I. Lotan,  P. E. Maslen,  N. Nair,  
 D. Neuhauser,  R. Olson,  B. Peters,  J. Ritchie,  N. E. Schultz,  
 N. Shenvi,  A. C. Simmonett,  K. S. Thanthiriwatte,  Q. Wu,  W. Zhang

 Please cite Q-Chem as follows:
 Y. Shao et al., Mol. Phys. 113, 184-215 (2015)
 DOI: 10.1080/00268976.2014.952696

 Q-Chem 4.4.2 for Intel X86 EM64T Linux

 Parts of Q-Chem use Armadillo 5.200.1 (Boston Tea Smuggler).
 http://arma.sourceforge.net/

 Q-Chem begins on Wed May 31 02:25:50 2017  

Host: nid00776
0

     Scratch files written to /global/cscratch1/sd/bwood/qchem/nx/qchem26272.0//
 Parallel job on  16  processors

Checking the input file for inconsistencies... 	...done.

--------------------------------------------------------------
User input:
--------------------------------------------------------------
$molecule
 1  2
 S           0.00238887        0.06077275        0.00183269
 C           1.73707619        0.03315849        0.00323229
 H           2.27612737        0.05289032        0.94042557
 C           2.24169204       -0.01546201       -1.26965798
 H           3.30285780       -0.04005365       -1.48972496
 C           1.22479222       -0.01612968       -2.26811464
 H           1.42674790       -0.02650987       -3.33334501
 C          -0.05393771        0.02880388       -1.75170966
 C          -1.32450815        0.04889988       -2.45636342
 C          -2.39544806        0.90320961       -2.29119375
 H          -2.39159784        1.71760148       -1.57525441
 C          -3.48217046        0.62969689       -3.17159704
 H          -4.40229884        1.20251373       -3.19001585
 C          -3.23724978       -0.42942693       -4.00550638
 H          -3.87815970       -0.84517289       -4.77092852
 S          -1.67421690       -1.12364194       -3.71476768
$end


$rem
         jobtype = opt
        exchange = b3lyp
           basis = 6-31++g**
  max_scf_cycles = 150
      mem_static = 775
       mem_total = 7750
      sym_ignore = true
        symmetry = false
          thresh = 12
$end


$opt
CONSTRAINT
tors 6 8 9 10 -130.0
ENDCONSTRAINT
$end

--------------------------------------------------------------
 ----------------------------------------------------------------
             Standard Nuclear Orientation (Angstroms)
    I     Atom           X                Y                Z
 ----------------------------------------------------------------
    1      S       0.0023888700     0.0607727500     0.0018326900
    2      C       1.7370761900     0.0331584900     0.0032322900
    3      H       2.2761273700     0.0528903200     0.9404255700
    4      C       2.2416920400    -0.0154620100    -1.2696579800
    5      H       3.3028578000    -0.0400536500    -1.4897249600
    6      C       1.2247922200    -0.0161296800    -2.2681146400
    7      H       1.4267479000    -0.0265098700    -3.3333450100
    8      C      -0.0539377100     0.0288038800    -1.7517096600
    9      C      -1.3245081500     0.0488998800    -2.4563634200
   10      C      -2.3954480600     0.9032096100    -2.2911937500
   11      H      -2.3915978400     1.7176014800    -1.5752544100
   12      C      -3.4821704600     0.6296968900    -3.1715970400
   13      H      -4.4022988400     1.2025137300    -3.1900158500
   14      C      -3.2372497800    -0.4294269300    -4.0055063800
   15      H      -3.8781597000    -0.8451728900    -4.7709285200
   16      S      -1.6742169000    -1.1236419400    -3.7147676800
 ----------------------------------------------------------------
 Nuclear Repulsion Energy =   628.4449876992 hartrees
 There are       43 alpha and       42 beta electrons
 Requested basis set is 6-31++G(d,p)
 There are 76 shells and 234 basis functions

 Total QAlloc Memory Limit   7750 MB
 Mega-Array Size       758 MB
 MEM_STATIC part       775 MB
 A cutoff of  1.0D-12 yielded   2532 shell pairs
 There are     24926 function pairs

 Q-Chem warning in module /project/projectdirs/jcesr/qchem/qc44/cnl_qc441/compile/cori/qc_src/libqints/qchem/aobasis.C, line 68:

 Using reconstructed effective core potential

 
 -------------------------------------------------------
 OpenMP Integral Computing Module                       
 Release: version 1.0, May 2013, Q-Chem Inc. Pittsburgh 
 -------------------------------------------------------
 Integral Job Info:
 Integral job number is                      11
 Integral operator is                         1
 short-range coefficients                     0
 long-range coefficients              100000000
 Omega coefficients                           0
 if combine SR and LR in K                    0
 Integral screening is                        0
 Integral computing path is                   2
 max size of driver memory is            800000
 size of driver memory is                593474
 size of scratch memory is             15166112
 max col of scratch BK array               1296
 max len of scratch array in speh3          155
 max len of scratch index in speh4           18
 max int batch size is                      520
 min int batch size is                       52
 fixed nKL is                                52
 max L of basis functions is                  2
 order of int derivative is                   0
 number of shells is                         76
 number of basis is                         234
 number of cartesian basis is               234
 number of contracted shell pairs          2532
 number of primitive shell pairs           8247
 maxK2 (contraction) of shell pair           36
 max number of K2 of shell pair               1
 max number of CS2 of shell pair            270
 max number of PS2 of shell pair           1512
 mem total for path MDJ                   51992
 -------------------------------------------------------
 Smallest overlap matrix eigenvalue = 1.07E-06

 Scale SEOQF with 1.000000e-01/1.000000e-01/1.000000e-01

 Standard Electronic Orientation quadrupole field applied
 Nucleus-field energy     =    -0.0000000447 hartrees
 Guess from superposition of atomic densities
 Warning:  Energy on first SCF cycle will be non-variational
 An unrestricted hybrid HF-DFT SCF calculation will be
 performed using Pulay DIIS extrapolation
 Exchange:     0.2000 Hartree-Fock + 0.0800 Slater + 0.7200 B88
 Correlation:  0.1900 VWN1RPA + 0.8100 LYP
 Using SG-1 standard quadrature grid
 SCF converges when DIIS error is below 1.0E-08
 Inaccurate integrated density:
   Number of electrons =    85
   Numerical integral  =    86.000344647825
   Relative error      =     1.1768760563 %
 ---------------------------------------
  Cycle       Energy         DIIS Error
 ---------------------------------------
    1   -1107.1517830719      4.39E-02
    2   -1104.4287518379      3.96E-03
    3   -1104.1807448297      6.67E-03
    4   -1104.5413753944      1.22E-03
    5   -1104.5499679674      6.68E-04
    6   -1104.5538287530      2.03E-04
    7   -1104.5542085282      9.74E-05
    8   -1104.5543299983      3.52E-05
    9   -1104.5543769705      2.26E-05
   10   -1104.5544237567      1.03E-05
   11   -1104.5544428097      4.64E-06
   12   -1104.5544454090      2.99E-06
   13   -1104.5544460244      1.20E-06
   14   -1104.5544462070      2.85E-07
   15   -1104.5544462174      1.36E-07
   16   -1104.5544462191      3.46E-08
   17   -1104.5544462186      1.58E-08
   18   -1104.5544462183      4.80E-09 Convergence criterion met
 ---------------------------------------
 <S^2> = 0.7621
 SCF time:  CPU 12.21 s  wall 11.59 s
 SCF   energy in the final basis set = -1104.5544462183
 Total energy in the final basis set = -1104.5544462183
 
 --------------------------------------------------------------
 
                    Orbital Energies (a.u.)
 --------------------------------------------------------------
 
 Alpha MOs
 -- Occupied --
-89.094 -89.094 -10.434 -10.433 -10.417 -10.417 -10.392 -10.392
-10.380 -10.380  -8.153  -8.153  -6.118  -6.118  -6.114  -6.113
 -6.110  -6.110  -1.087  -1.063  -0.959  -0.925  -0.916  -0.893
 -0.786  -0.754  -0.733  -0.711  -0.698  -0.653  -0.598  -0.594
 -0.593  -0.582  -0.578  -0.556  -0.554  -0.525  -0.518  -0.459
 -0.434  -0.433  -0.414
 -- Virtual --
 -0.231  -0.193  -0.156  -0.154  -0.134  -0.123  -0.121  -0.106
 -0.097  -0.095  -0.091  -0.086  -0.083  -0.077  -0.070  -0.058
 -0.047  -0.038  -0.036  -0.030  -0.022  -0.017  -0.015  -0.009
  0.002   0.003   0.008   0.009   0.011   0.013   0.023   0.024
  0.028   0.029   0.033   0.035   0.040   0.048   0.053   0.058
  0.059   0.066   0.072   0.077   0.083   0.090   0.102   0.110
  0.111   0.112   0.120   0.134   0.136   0.140   0.149   0.155
  0.172   0.177   0.180   0.189   0.214   0.222   0.240   0.242
  0.281   0.300   0.307   0.354   0.369   0.372   0.377   0.415
  0.424   0.437   0.453   0.468   0.481   0.482   0.499   0.511
  0.535   0.549   0.557   0.564   0.571   0.586   0.597   0.601
  0.613   0.638   0.639   0.662   0.664   0.704   0.748   0.771
  0.780   0.786   0.792   0.806   0.810   0.834   0.839   0.852
  0.857   0.859   0.880   0.907   0.922   0.924   0.931   0.952
  0.984   1.011   1.020   1.044   1.083   1.110   1.145   1.166
  1.169   1.174   1.186   1.206   1.286   1.287   1.320   1.360
  1.365   1.503   1.509   1.568   1.617   1.677   1.692   1.711
  1.742   1.749   1.782   1.811   1.828   1.859   1.903   1.908
  1.935   1.957   1.996   2.001   2.045   2.072   2.083   2.154
  2.200   2.200   2.249   2.260   2.283   2.299   2.323   2.330
  2.351   2.354   2.414   2.416   2.420   2.479   2.523   2.538
  2.564   2.672   2.680   2.724   2.750   2.977   3.016   3.108
  3.111   3.234   3.255   3.550   3.569   3.799   3.802   4.071
  4.124   4.131   4.152   4.237   4.347   4.477   4.530
 
 Beta MOs
 -- Occupied --
-89.094 -89.094 -10.431 -10.431 -10.413 -10.413 -10.390 -10.390
-10.380 -10.380  -8.153  -8.153  -6.118  -6.118  -6.114  -6.114
 -6.111  -6.110  -1.081  -1.057  -0.951  -0.922  -0.914  -0.883
 -0.781  -0.749  -0.728  -0.708  -0.697  -0.651  -0.594  -0.591
 -0.582  -0.579  -0.574  -0.548  -0.541  -0.524  -0.517  -0.432
 -0.430  -0.429
 -- Virtual --
 -0.349  -0.213  -0.177  -0.152  -0.150  -0.127  -0.119  -0.114
 -0.102  -0.097  -0.093  -0.090  -0.085  -0.081  -0.074  -0.070
 -0.058  -0.046  -0.036  -0.035  -0.029  -0.021  -0.017  -0.014
 -0.009   0.003   0.004   0.008   0.011   0.013   0.016   0.024
  0.025   0.030   0.031   0.034   0.036   0.042   0.049   0.054
  0.059   0.061   0.066   0.074   0.078   0.085   0.090   0.102
  0.111   0.111   0.113   0.124   0.135   0.138   0.141   0.150
  0.157   0.173   0.179   0.182   0.191   0.216   0.223   0.242
  0.244   0.283   0.301   0.309   0.355   0.371   0.373   0.377
  0.416   0.427   0.439   0.455   0.470   0.487   0.492   0.504
  0.520   0.537   0.552   0.560   0.566   0.573   0.590   0.602
  0.606   0.617   0.640   0.643   0.667   0.670   0.706   0.750
  0.776   0.782   0.789   0.794   0.809   0.812   0.835   0.841
  0.853   0.859   0.862   0.883   0.909   0.923   0.926   0.933
  0.954   0.987   1.015   1.024   1.050   1.086   1.113   1.148
  1.174   1.175   1.179   1.193   1.210   1.292   1.292   1.324
  1.369   1.371   1.516   1.522   1.575   1.625   1.683   1.697
  1.713   1.745   1.752   1.786   1.816   1.833   1.864   1.908
  1.913   1.944   1.967   2.007   2.010   2.055   2.078   2.090
  2.159   2.203   2.203   2.251   2.267   2.290   2.301   2.327
  2.335   2.355   2.358   2.418   2.419   2.424   2.483   2.527
  2.542   2.569   2.675   2.683   2.726   2.752   2.978   3.018
  3.108   3.111   3.236   3.257   3.551   3.571   3.799   3.802
  4.077   4.127   4.137   4.155   4.243   4.354   4.481   4.534
 --------------------------------------------------------------
 
          Ground-State Mulliken Net Atomic Charges

     Atom                 Charge (a.u.)    Spin (a.u.)
  --------------------------------------------------------
      1 S                     0.114918      -0.050438
      2 C                     0.081656       0.298892
      3 H                     0.247495      -0.014405
      4 C                    -0.393957      -0.012660
      5 H                     0.171913      -0.000321
      6 C                     0.304247       0.130120
      7 H                     0.179133      -0.007795
      8 C                    -0.203709       0.156584
      9 C                    -0.206794       0.156779
     10 C                     0.303566       0.129887
     11 H                     0.179253      -0.007802
     12 C                    -0.393225      -0.012551
     13 H                     0.171811      -0.000327
     14 C                     0.080466       0.298754
     15 H                     0.247458      -0.014403
     16 S                     0.115771      -0.050315
  --------------------------------------------------------
  Sum of atomic charges =     1.000000
  Sum of spin   charges =     1.000000

 -----------------------------------------------------------------
                    Cartesian Multipole Moments
 -----------------------------------------------------------------
    Charge (ESU x 10^10)
                 4.8032
    Dipole Moment (Debye)
         X      -3.2678      Y       0.3537      Z     -10.1797
       Tot      10.6972
    Quadrupole Moments (Debye-Ang)
        XX     -31.0431     XY      -2.0304     YY     -68.1356
        XZ      24.7276     YZ       3.1022     ZZ     -29.3205
    Octopole Moments (Debye-Ang^2)
       XXX      79.7118    XXY      14.3082    XYY      36.9292
       YYY      19.3908    XXZ      28.8232    XYZ      -5.1838
       YYZ     135.2733    XZZ     -46.7694    YZZ     -16.9364
       ZZZ     278.4813
    Hexadecapole Moments (Debye-Ang^3)
      XXXX   -1206.8272   XXXY     -52.9999   XXYY    -294.4907
      XYYY     -19.5021   YYYY    -233.2096   XXXZ    -321.0209
      XXYZ     -27.2427   XYYZ    -198.7212   YYYZ    -108.7148
      XXZZ    -278.6064   XYZZ      56.1728   YYZZ    -465.8521
      XZZZ    -259.0479   YZZZ      13.3943   ZZZZ   -2112.2392
 -----------------------------------------------------------------
 Calculating analytic gradient of the SCF energy
 Gradient of SCF Energy
            1           2           3           4           5           6
    1   0.0024315   0.0179051  -0.0007109   0.0013769   0.0003840  -0.0333668
    2  -0.0075094  -0.0009177   0.0022132  -0.0014453  -0.0010376   0.0091304
    3  -0.0116639  -0.0089827  -0.0012299   0.0302495   0.0006454   0.0022205
            7           8           9          10          11          12
    1  -0.0007159   0.0297959  -0.0265879   0.0330407   0.0006915  -0.0071399
    2   0.0001924  -0.0017830   0.0139703  -0.0098448  -0.0001973  -0.0211987
    3   0.0000293  -0.0038631  -0.0012411  -0.0019462  -0.0000063  -0.0204262
           13          14          15          16
    1  -0.0008937  -0.0147494   0.0017552  -0.0032162
    2  -0.0009161   0.0130273   0.0018799   0.0044365
    3   0.0002029   0.0036706  -0.0005551   0.0128964
 Max gradient component =       3.337E-02
 RMS gradient           =       1.229E-02
 Gradient time:  CPU 1.96 s  wall 1.91 s
 Geometry Optimization Parameters
   NAtoms,    NIC,     NZ,  NCons,   NDum,   NFix, NCnnct, MaxDiis
       16     111       0       1       0       0       0       0


** CONSTRAINED OPTIMIZATION IN DELOCALIZED INTERNAL COORDINATES **
   Searching for a Minimum

   Optimization Cycle:   1

                       Coordinates (Angstroms)
     ATOM                X               Y               Z
      1  S         0.0023888700    0.0607727500    0.0018326900
      2  C         1.7370761900    0.0331584900    0.0032322900
      3  H         2.2761273700    0.0528903200    0.9404255700
      4  C         2.2416920400   -0.0154620100   -1.2696579800
      5  H         3.3028578000   -0.0400536500   -1.4897249600
      6  C         1.2247922200   -0.0161296800   -2.2681146400
      7  H         1.4267479000   -0.0265098700   -3.3333450100
      8  C        -0.0539377100    0.0288038800   -1.7517096600
      9  C        -1.3245081500    0.0488998800   -2.4563634200
     10  C        -2.3954480600    0.9032096100   -2.2911937500
     11  H        -2.3915978400    1.7176014800   -1.5752544100
     12  C        -3.4821704600    0.6296968900   -3.1715970400
     13  H        -4.4022988400    1.2025137300   -3.1900158500
     14  C        -3.2372497800   -0.4294269300   -4.0055063800
     15  H        -3.8781597000   -0.8451728900   -4.7709285200
     16  S        -1.6742169000   -1.1236419400   -3.7147676800
   Point Group: c1    Number of degrees of freedom:    42


   Energy is  -1104.554446218

              Constraints and their Current Values
                                        Value     Constraint
   Dihedral:        6   8   9  10     -130.000     -130.000

 Attempting to Generate Delocalized Internal Coordinates

 41 Hessian modes will be used to form the next step
  Hessian Eigenvalues:
     0.045000    0.045000    0.045000    0.045000    0.045000    0.045000
     0.045002    0.045002    0.045003    0.045004    0.045011    0.045012
     0.159943    0.159949    0.159991    0.159992    0.160000    0.160000
     0.221282    0.221282    0.237835    0.237839    0.250000    0.250000
     0.294264    0.294663    0.312518    0.312618    0.354736    0.354850
     0.355125    0.355132    0.358226    0.358329    0.378510    0.404854
     0.404909    0.463547    0.463616    0.497922    0.497945

 Minimum Search - Taking Simple RFO Step
 Searching for Lamda that Minimizes Along All modes
 Value Taken    Lamda =  -0.01231419
 Step Taken.  Stepsize is  0.266517

                             Maximum     Tolerance    Cnvgd?
         Gradient           0.030402      0.000300      NO
         Displacement       0.123798      0.001200      NO
         Energy change     *********      0.000001      NO


 New Cartesian Coordinates Obtained by Inverse Iteration

 Displacement from previous Coordinates is:  0.497819
 ----------------------------------------------------------------
             Standard Nuclear Orientation (Angstroms)
    I     Atom           X                Y                Z
 ----------------------------------------------------------------
    1      S      -0.0389152372     0.1096226173     0.0221252051
    2      C       1.6895788907     0.0728326047    -0.0232114121
    3      H       2.2389778211     0.1176814413     0.9093730240
    4      C       2.2130756452    -0.0065487638    -1.3098452256
    5      H       3.2738907784    -0.0192510890    -1.5306977115
    6      C       1.2125530012    -0.0660263883    -2.2866039868
    7      H       1.4069964952    -0.1084986061    -3.3526741999
    8      C      -0.0783951823    -0.0211339775    -1.7353682545
    9      C      -1.3253962890    -0.0028890892    -2.4307496190
   10      C      -2.4003127864     0.8810604265    -2.2421184207
   11      H      -2.4014689192     1.6736008490    -1.5017415896
   12      C      -3.4458345828     0.6511532896    -3.1435649785
   13      H      -4.3605499686     1.2316130214    -3.1681615419
   14      C      -3.1751673504    -0.4068281723    -4.0055582906
   15      H      -3.8152890364    -0.8000296383    -4.7861718897
   16      S      -1.6216483296    -1.1252084653    -3.7577198587
 ----------------------------------------------------------------
 Nuclear Repulsion Energy =   629.3018638728 hartrees
 There are       43 alpha and       42 beta electrons
 Applying Cartesian multipole field
    Component          Value
    ---------          -----
     (2,0,0)        1.00000E-11
     (0,2,0)        2.00000E-11
     (0,0,2)       -3.00000E-11
 Nucleus-field energy     =    -0.0000000454 hartrees
 Requested basis set is 6-31++G(d,p)
 There are 76 shells and 234 basis functions
 A cutoff of  1.0D-12 yielded   2540 shell pairs
 There are     25058 function pairs

 Q-Chem warning in module /project/projectdirs/jcesr/qchem/qc44/cnl_qc441/compile/cori/qc_src/libqints/qchem/aobasis.C, line 68:

 Using reconstructed effective core potential

 Smallest overlap matrix eigenvalue = 8.37E-07
 Linear dependence detected in AO basis
 Number of orthogonalized atomic orbitals = 233
 Maximum deviation from orthogonality = 4.345E-11
 No. of orbitals has changed due to linear dependencies.  Generating new SCF guess.
 Guess from superposition of atomic densities
 Warning:  Energy on first SCF cycle will be non-variational
 An unrestricted hybrid HF-DFT SCF calculation will be
 performed using Pulay DIIS extrapolation
 Exchange:     0.2000 Hartree-Fock + 0.0800 Slater + 0.7200 B88
 Correlation:  0.1900 VWN1RPA + 0.8100 LYP
 Using SG-1 standard quadrature grid
 SCF converges when DIIS error is below 1.0E-08
 Geometry optimization detected.  Setting ReadMinima to 0
 Setting SaveMinima to 0
 Inaccurate integrated density:
   Number of electrons =    85
   Numerical integral  =    86.000116766831
   Relative error      =     1.1766079610 %
 ---------------------------------------
  Cycle       Energy         DIIS Error
 ---------------------------------------
    1   -1107.1202962670      4.38E-02
    2   -1104.4342786567      3.99E-03
    3   -1104.1959086398      6.61E-03
    4   -1104.5514729935      1.06E-03
    5   -1104.5569250985      6.71E-04
    6   -1104.5606613597      1.73E-04
    7   -1104.5609462744      6.43E-05
    8   -1104.5610084307      2.18E-05
    9   -1104.5610306603      1.58E-05
   10   -1104.5610507052      6.52E-06
   11   -1104.5610610690      3.32E-06
   12   -1104.5610628652      2.17E-06
   13   -1104.5610631445      8.30E-07
   14   -1104.5610632125      1.96E-07
   15   -1104.5610632167      8.43E-08
   16   -1104.5610632170      2.89E-08
   17   -1104.5610632175      1.13E-08
   18   -1104.5610632168      4.55E-09 Convergence criterion met
 ---------------------------------------
 <S^2> = 0.7648
 SCF time:  CPU 12.10 s  wall 11.50 s
 SCF   energy in the final basis set = -1104.5610632168
 Total energy in the final basis set = -1104.5610632168
 
 --------------------------------------------------------------
 
                    Orbital Energies (a.u.)
 --------------------------------------------------------------
 
 Alpha MOs
 -- Occupied --
-89.098 -89.098 -10.431 -10.430 -10.417 -10.417 -10.391 -10.391
-10.379 -10.379  -8.157  -8.157  -6.121  -6.121  -6.117  -6.117
 -6.114  -6.113  -1.085  -1.059  -0.955  -0.931  -0.921  -0.881
 -0.785  -0.754  -0.729  -0.713  -0.700  -0.647  -0.593  -0.593
 -0.586  -0.580  -0.578  -0.555  -0.550  -0.534  -0.526  -0.456
 -0.438  -0.437  -0.402
 -- Virtual --
 -0.237  -0.194  -0.161  -0.160  -0.132  -0.124  -0.118  -0.106
 -0.098  -0.095  -0.090  -0.087  -0.082  -0.075  -0.071  -0.057
 -0.047  -0.037  -0.034  -0.028  -0.022  -0.017  -0.013  -0.009
  0.000   0.005   0.009   0.011   0.013   0.013   0.022   0.025
  0.028   0.029   0.034   0.037   0.041   0.048   0.051   0.058
  0.066   0.071   0.077   0.078   0.086   0.096   0.103   0.108
  0.111   0.112   0.112   0.127   0.139   0.142   0.150   0.154
  0.169   0.179   0.197   0.209   0.221   0.234   0.235   0.252
  0.301   0.308   0.360   0.369   0.376   0.377   0.409   0.415
  0.441   0.451   0.465   0.479   0.484   0.497   0.508   0.540
  0.541   0.555   0.562   0.575   0.583   0.597   0.608   0.612
  0.643   0.643   0.662   0.664   0.700   0.741   0.764   0.776
  0.786   0.787   0.808   0.810   0.814   0.838   0.839   0.850
  0.850   0.876   0.904   0.914   0.919   0.926   0.953   0.977
  1.005   1.009   1.038   1.085   1.103   1.141   1.169   1.171
  1.177   1.184   1.206   1.281   1.282   1.312   1.357   1.367
  1.503   1.508   1.562   1.629   1.659   1.712   1.722   1.736
  1.745   1.790   1.821   1.840   1.865   1.902   1.904   1.936
  1.945   2.000   2.010   2.041   2.075   2.078   2.145   2.202
  2.203   2.255   2.256   2.276   2.299   2.323   2.326   2.339
  2.353   2.400   2.405   2.413   2.476   2.524   2.535   2.572
  2.672   2.674   2.723   2.744   2.973   3.015   3.104   3.108
  3.230   3.249   3.552   3.570   3.796   3.799   4.073   4.092
  4.130   4.148   4.239   4.338   4.485   4.535
 
 Beta MOs
 -- Occupied --
-89.098 -89.098 -10.429 -10.428 -10.413 -10.413 -10.389 -10.389
-10.379 -10.379  -8.157  -8.157  -6.121  -6.121  -6.117  -6.117
 -6.114  -6.114  -1.079  -1.054  -0.948  -0.928  -0.919  -0.870
 -0.780  -0.749  -0.725  -0.710  -0.698  -0.644  -0.590  -0.585
 -0.580  -0.578  -0.575  -0.545  -0.539  -0.533  -0.525  -0.435
 -0.434  -0.428
 -- Virtual --
 -0.337  -0.217  -0.179  -0.156  -0.156  -0.126  -0.118  -0.111
 -0.103  -0.097  -0.093  -0.090  -0.087  -0.081  -0.072  -0.070
 -0.057  -0.045  -0.035  -0.033  -0.027  -0.022  -0.016  -0.013
 -0.009   0.001   0.005   0.010   0.012   0.015   0.015   0.023
  0.025   0.030   0.031   0.035   0.037   0.043   0.049   0.052
  0.059   0.066   0.073   0.079   0.080   0.087   0.098   0.104
  0.109   0.112   0.112   0.115   0.128   0.139   0.143   0.152
  0.156   0.170   0.181   0.199   0.211   0.223   0.235   0.238
  0.255   0.302   0.310   0.361   0.370   0.377   0.377   0.410
  0.418   0.443   0.453   0.466   0.485   0.496   0.501   0.518
  0.542   0.542   0.557   0.563   0.577   0.587   0.602   0.613
  0.616   0.645   0.648   0.669   0.669   0.703   0.743   0.769
  0.779   0.789   0.790   0.810   0.813   0.816   0.839   0.840
  0.851   0.853   0.878   0.906   0.915   0.921   0.928   0.955
  0.981   1.010   1.014   1.042   1.088   1.106   1.143   1.175
  1.179   1.181   1.192   1.210   1.286   1.287   1.318   1.364
  1.374   1.515   1.522   1.570   1.635   1.664   1.719   1.724
  1.739   1.749   1.793   1.826   1.845   1.870   1.907   1.909
  1.944   1.954   2.011   2.019   2.052   2.081   2.085   2.151
  2.205   2.206   2.257   2.262   2.283   2.300   2.327   2.331
  2.343   2.357   2.406   2.409   2.417   2.479   2.528   2.539
  2.577   2.675   2.677   2.725   2.747   2.974   3.016   3.105
  3.108   3.231   3.251   3.553   3.572   3.796   3.799   4.079
  4.099   4.133   4.150   4.246   4.346   4.489   4.538
 --------------------------------------------------------------
 
          Ground-State Mulliken Net Atomic Charges

     Atom                 Charge (a.u.)    Spin (a.u.)
  --------------------------------------------------------
      1 S                     0.127214      -0.049896
      2 C                     0.100134       0.317304
      3 H                     0.247889      -0.015465
      4 C                    -0.390260      -0.023640
      5 H                     0.172141       0.000534
      6 C                     0.330126       0.143825
      7 H                     0.178138      -0.008371
      8 C                    -0.264011       0.135818
      9 C                    -0.266105       0.135692
     10 C                     0.328367       0.143755
     11 H                     0.178318      -0.008359
     12 C                    -0.389100      -0.023587
     13 H                     0.172020       0.000533
     14 C                     0.098531       0.317061
     15 H                     0.247840      -0.015457
     16 S                     0.128759      -0.049745
  --------------------------------------------------------
  Sum of atomic charges =     1.000000
  Sum of spin   charges =     1.000000

 -----------------------------------------------------------------
                    Cartesian Multipole Moments
 -----------------------------------------------------------------
    Charge (ESU x 10^10)
                 4.8032
    Dipole Moment (Debye)
         X      -3.2654      Y       0.3621      Z     -10.1838
       Tot      10.7007
    Quadrupole Moments (Debye-Ang)
        XX     -32.5553     XY      -2.2529     YY     -68.0671
        XZ      23.4654     YZ       3.6944     ZZ     -28.9003
    Octopole Moments (Debye-Ang^2)
       XXX      84.1152    XXY      16.2912    XYY      37.0605
       YYY      18.5979    XXZ      33.7571    XYZ      -3.8287
       YYZ     135.2735    XZZ     -42.8200    YZZ     -18.8767
       ZZZ     275.2619
    Hexadecapole Moments (Debye-Ang^3)
      XXXX   -1195.0584   XXXY     -56.9037   XXYY    -287.7261
      XYYY     -17.5970   YYYY    -232.6831   XXXZ    -334.9356
      XXYZ     -35.7709   XYYZ    -194.8877   YYYZ    -114.8524
      XXZZ    -296.3534   XYZZ      51.7167   YYZZ    -466.5271
      XZZZ    -259.3761   YZZZ      14.8480   ZZZZ   -2103.0845
 -----------------------------------------------------------------
 Calculating analytic gradient of the SCF energy
 Gradient of SCF Energy
            1           2           3           4           5           6
    1  -0.0082492   0.0028350  -0.0010180   0.0012551  -0.0000978  -0.0062449
    2  -0.0034811  -0.0024228   0.0015423  -0.0000688  -0.0008008   0.0081335
    3   0.0036307  -0.0058911   0.0001422   0.0040517  -0.0014873  -0.0025598
            7           8           9          10          11          12
    1   0.0014279   0.0134279  -0.0141476   0.0093691  -0.0010853  -0.0018962
    2   0.0004298  -0.0045137   0.0018751   0.0040005   0.0009451  -0.0022946
    3  -0.0001694   0.0014919  -0.0002764  -0.0027406  -0.0004214  -0.0030576
           13          14          15          16
    1   0.0000132  -0.0024724   0.0015151   0.0053680
    2   0.0005074   0.0037816   0.0004142  -0.0080477
    3   0.0016074   0.0053596  -0.0009896   0.0013097
 Max gradient component =       1.415E-02
 RMS gradient           =       4.494E-03
 Gradient time:  CPU 1.90 s  wall 1.90 s
 Geometry Optimization Parameters
   NAtoms,    NIC,     NZ,  NCons,   NDum,   NFix, NCnnct, MaxDiis
       16     111       0       1       0       0       0       0

 Cartesian Hessian Update
 Hessian Updated using BFGS Update


** CONSTRAINED OPTIMIZATION IN DELOCALIZED INTERNAL COORDINATES **
   Searching for a Minimum

   Optimization Cycle:   2

                       Coordinates (Angstroms)
     ATOM                X               Y               Z
      1  S        -0.0389152372    0.1096226173    0.0221252051
      2  C         1.6895788907    0.0728326047   -0.0232114121
      3  H         2.2389778211    0.1176814413    0.9093730240
      4  C         2.2130756452   -0.0065487638   -1.3098452256
      5  H         3.2738907784   -0.0192510890   -1.5306977115
      6  C         1.2125530012   -0.0660263883   -2.2866039868
      7  H         1.4069964952   -0.1084986061   -3.3526741999
      8  C        -0.0783951823   -0.0211339775   -1.7353682545
      9  C        -1.3253962890   -0.0028890892   -2.4307496190
     10  C        -2.4003127864    0.8810604265   -2.2421184207
     11  H        -2.4014689192    1.6736008490   -1.5017415896
     12  C        -3.4458345828    0.6511532896   -3.1435649785
     13  H        -4.3605499686    1.2316130214   -3.1681615419
     14  C        -3.1751673504   -0.4068281723   -4.0055582906
     15  H        -3.8152890364   -0.8000296383   -4.7861718897
     16  S        -1.6216483296   -1.1252084653   -3.7577198587
   Point Group: c1    Number of degrees of freedom:    42


   Energy is  -1104.561063217

              Constraints and their Current Values
                                        Value     Constraint
   Dihedral:        6   8   9  10     -130.000     -130.000
 Hessian Updated using BFGS Update

 40 Hessian modes will be used to form the next step
  Hessian Eigenvalues:
     0.035606    0.045000    0.045000    0.045000    0.045000    0.045002
     0.045002    0.045004    0.045011    0.045012    0.045411    0.159842
     0.159946    0.159963    0.159992    0.160000    0.160494    0.221282
     0.222037    0.237837    0.248465    0.250000    0.283855    0.294452
     0.296363    0.309667    0.312569    0.354696    0.354826    0.355106
     0.355129    0.358203    0.358313    0.378318    0.404881    0.428804
     0.453431    0.463582    0.497933    0.499924

 Minimum Search - Taking Simple RFO Step
 Searching for Lamda that Minimizes Along All modes
 Value Taken    Lamda =  -0.00310149
 Step Taken.  Stepsize is  0.242473

                             Maximum     Tolerance    Cnvgd?
         Gradient           0.009428      0.000300      NO
         Displacement       0.128825      0.001200      NO
         Energy change     -0.006617      0.000001      NO


 New Cartesian Coordinates Obtained by Inverse Iteration

 Displacement from previous Coordinates is:  0.513943
 ----------------------------------------------------------------
             Standard Nuclear Orientation (Angstroms)
    I     Atom           X                Y                Z
 ----------------------------------------------------------------
    1      S      -0.0188493586     0.1585121502     0.0311699307
    2      C       1.7015920003     0.1317504418    -0.0240925976
    3      H       2.2670852758     0.2139800856     0.8973533277
    4      C       2.2096823240     0.0004396172    -1.3191601847
    5      H       3.2692748898    -0.0000745515    -1.5441073381
    6      C       1.2030512133    -0.1268811816    -2.2758767634
    7      H       1.3805372557    -0.2121592965    -3.3417324876
    8      C      -0.0954580793    -0.0800797186    -1.7159257311
    9      C      -1.3371922299    -0.0588909686    -2.4018219344
   10      C      -2.4176338923     0.8333758088    -2.2061535890
   11      H      -2.4202952495     1.5932188202    -1.4331052838
   12      C      -3.4382732180     0.6602989343    -3.1405326662
   13      H      -4.3461475447     1.2503964769    -3.1693298287
   14      C      -3.1626402369    -0.3660648548    -4.0477614232
   15      H      -3.8006714102    -0.7227507406    -4.8486735107
   16      S      -1.6219667895    -1.0939209627    -3.8029386698
 ----------------------------------------------------------------
 Nuclear Repulsion Energy =   628.8668515489 hartrees
 There are       43 alpha and       42 beta electrons
 Applying Cartesian multipole field
    Component          Value
    ---------          -----
     (2,0,0)        1.00000E-11
     (0,2,0)        2.00000E-11
     (0,0,2)       -3.00000E-11
 Nucleus-field energy     =    -0.0000000461 hartrees
 Requested basis set is 6-31++G(d,p)
 There are 76 shells and 234 basis functions
 A cutoff of  1.0D-12 yielded   2541 shell pairs
 There are     25064 function pairs

 Q-Chem warning in module /project/projectdirs/jcesr/qchem/qc44/cnl_qc441/compile/cori/qc_src/libqints/qchem/aobasis.C, line 68:

 Using reconstructed effective core potential

 Smallest overlap matrix eigenvalue = 8.67E-07
 Linear dependence detected in AO basis
 Number of orthogonalized atomic orbitals = 233
 Maximum deviation from orthogonality = 3.199E-11
 Guess MOs from SCF MO coefficient file
 Reading MOs from coefficient file
 Size of previous SCF MO coefficient file: 109510 (expected); 109980 (actual). 

 Q-Chem warning in module /project/projectdirs/jcesr/qchem/qc44/cnl_qc441/compile/cori/qc_src/gesman/GuessMan.C, line 722:

 Inconsistent size for SCF MO coefficient file.  Please check basis and PURECART setting.

 Reading MOs from coefficient file
 An unrestricted hybrid HF-DFT SCF calculation will be
 performed using Pulay DIIS extrapolation
 Exchange:     0.2000 Hartree-Fock + 0.0800 Slater + 0.7200 B88
 Correlation:  0.1900 VWN1RPA + 0.8100 LYP
 Using SG-1 standard quadrature grid
 SCF converges when DIIS error is below 1.0E-08
 Geometry optimization detected.  Setting ReadMinima to 0
 Setting SaveMinima to 0
 ---------------------------------------
  Cycle       Energy         DIIS Error
 ---------------------------------------
    1   -1104.5369958461      1.88E-03
    2   -1104.5629728172      1.50E-04
    3   -1104.5629437070      1.97E-04
    4   -1104.5632185410      6.75E-05
    5   -1104.5632516525      2.54E-05
    6   -1104.5632560375      1.09E-05
    7   -1104.5632571443      2.64E-06
    8   -1104.5632572443      8.39E-07
    9   -1104.5632572714      3.74E-07
   10   -1104.5632572916      2.29E-07
   11   -1104.5632572987      1.71E-07
   12   -1104.5632573023      6.66E-08
   13   -1104.5632573027      4.08E-08
   14   -1104.5632573027      1.25E-08
   15   -1104.5632573032      4.17E-09 Convergence criterion met
 ---------------------------------------
 <S^2> = 0.7657
 SCF time:  CPU 10.16 s  wall 10.44 s
 SCF   energy in the final basis set = -1104.5632573032
 Total energy in the final basis set = -1104.5632573032
 
 --------------------------------------------------------------
 
                    Orbital Energies (a.u.)
 --------------------------------------------------------------
 
 Alpha MOs
 -- Occupied --
-89.098 -89.098 -10.432 -10.431 -10.418 -10.418 -10.392 -10.392
-10.379 -10.379  -8.157  -8.157  -6.121  -6.121  -6.117  -6.117
 -6.114  -6.114  -1.084  -1.060  -0.956  -0.931  -0.921  -0.880
 -0.786  -0.754  -0.728  -0.712  -0.699  -0.649  -0.594  -0.593
 -0.586  -0.581  -0.579  -0.555  -0.551  -0.533  -0.524  -0.460
 -0.438  -0.437  -0.399
 -- Virtual --
 -0.240  -0.193  -0.159  -0.159  -0.131  -0.123  -0.118  -0.108
 -0.098  -0.095  -0.091  -0.088  -0.082  -0.075  -0.071  -0.058
 -0.047  -0.036  -0.036  -0.026  -0.025  -0.017  -0.012  -0.008
 -0.001   0.006   0.008   0.011   0.012   0.014   0.022   0.025
  0.028   0.028   0.034   0.039   0.043   0.047   0.050   0.057
  0.067   0.073   0.077   0.079   0.088   0.097   0.103   0.105
  0.109   0.112   0.115   0.125   0.137   0.145   0.148   0.151
  0.167   0.178   0.199   0.208   0.220   0.233   0.236   0.250
  0.298   0.308   0.360   0.367   0.379   0.382   0.409   0.411
  0.446   0.454   0.465   0.474   0.486   0.494   0.504   0.524
  0.539   0.554   0.562   0.571   0.583   0.594   0.610   0.612
  0.644   0.646   0.661   0.666   0.699   0.740   0.763   0.773
  0.786   0.793   0.809   0.815   0.815   0.838   0.844   0.846
  0.851   0.872   0.901   0.919   0.920   0.926   0.949   0.971
  1.004   1.006   1.042   1.086   1.095   1.145   1.167   1.169
  1.177   1.178   1.211   1.275   1.282   1.298   1.353   1.387
  1.501   1.511   1.550   1.637   1.654   1.708   1.724   1.732
  1.746   1.785   1.815   1.839   1.860   1.896   1.898   1.942
  1.944   1.997   2.008   2.037   2.067   2.076   2.151   2.200
  2.202   2.248   2.256   2.277   2.298   2.322   2.325   2.338
  2.355   2.402   2.405   2.414   2.478   2.523   2.530   2.569
  2.665   2.668   2.720   2.745   2.972   3.015   3.104   3.108
  3.227   3.244   3.549   3.567   3.798   3.798   4.073   4.090
  4.131   4.146   4.238   4.336   4.485   4.530
 
 Beta MOs
 -- Occupied --
-89.098 -89.098 -10.429 -10.429 -10.413 -10.413 -10.390 -10.390
-10.379 -10.379  -8.157  -8.157  -6.121  -6.121  -6.117  -6.117
 -6.114  -6.114  -1.079  -1.054  -0.949  -0.929  -0.919  -0.869
 -0.781  -0.750  -0.723  -0.709  -0.698  -0.646  -0.591  -0.586
 -0.582  -0.577  -0.576  -0.546  -0.539  -0.532  -0.522  -0.436
 -0.435  -0.431
 -- Virtual --
 -0.333  -0.220  -0.178  -0.155  -0.155  -0.126  -0.118  -0.111
 -0.104  -0.097  -0.093  -0.090  -0.087  -0.081  -0.073  -0.071
 -0.057  -0.045  -0.035  -0.035  -0.025  -0.024  -0.016  -0.011
 -0.008   0.000   0.006   0.010   0.012   0.014   0.016   0.022
  0.026   0.029   0.030   0.035   0.040   0.044   0.048   0.051
  0.058   0.067   0.074   0.079   0.081   0.089   0.099   0.103
  0.108   0.110   0.114   0.115   0.125   0.138   0.146   0.150
  0.152   0.168   0.181   0.200   0.209   0.222   0.234   0.238
  0.253   0.299   0.310   0.362   0.368   0.380   0.383   0.411
  0.413   0.447   0.456   0.466   0.480   0.497   0.498   0.515
  0.526   0.541   0.556   0.563   0.574   0.588   0.600   0.615
  0.615   0.647   0.648   0.667   0.670   0.701   0.742   0.768
  0.775   0.787   0.797   0.811   0.817   0.817   0.840   0.845
  0.847   0.854   0.874   0.903   0.920   0.922   0.928   0.951
  0.975   1.009   1.010   1.047   1.089   1.097   1.146   1.172
  1.176   1.183   1.186   1.215   1.280   1.288   1.305   1.359
  1.395   1.512   1.525   1.559   1.642   1.658   1.716   1.725
  1.735   1.750   1.787   1.820   1.844   1.864   1.903   1.903
  1.951   1.951   2.008   2.014   2.050   2.073   2.082   2.157
  2.203   2.206   2.251   2.263   2.283   2.299   2.326   2.330
  2.342   2.358   2.407   2.410   2.418   2.481   2.527   2.534
  2.574   2.669   2.671   2.722   2.747   2.974   3.016   3.105
  3.108   3.228   3.246   3.551   3.568   3.798   3.798   4.079
  4.097   4.134   4.148   4.245   4.343   4.488   4.533
 --------------------------------------------------------------
 
          Ground-State Mulliken Net Atomic Charges

     Atom                 Charge (a.u.)    Spin (a.u.)
  --------------------------------------------------------
      1 S                     0.122059      -0.049956
      2 C                     0.102751       0.322994
      3 H                     0.248455      -0.016052
      4 C                    -0.411811      -0.029067
      5 H                     0.171046       0.000896
      6 C                     0.311439       0.150553
      7 H                     0.174028      -0.008926
      8 C                    -0.216576       0.129664
      9 C                    -0.218331       0.129585
     10 C                     0.309208       0.150459
     11 H                     0.174165      -0.008902
     12 C                    -0.410756      -0.029049
     13 H                     0.170855       0.000896
     14 C                     0.101122       0.322746
     15 H                     0.248431      -0.016046
     16 S                     0.123916      -0.049795
  --------------------------------------------------------
  Sum of atomic charges =     1.000000
  Sum of spin   charges =     1.000000

 -----------------------------------------------------------------
                    Cartesian Multipole Moments
 -----------------------------------------------------------------
    Charge (ESU x 10^10)
                 4.8032
    Dipole Moment (Debye)
         X      -3.2425      Y       0.4523      Z     -10.2231
       Tot      10.7346
    Quadrupole Moments (Debye-Ang)
        XX     -32.6085     XY      -2.2881     YY     -68.4213
        XZ      23.7781     YZ       3.8537     ZZ     -28.2398
    Octopole Moments (Debye-Ang^2)
       XXX      84.7984    XXY      17.3194    XYY      38.1188
       YYY      17.2965    XXZ      33.9644    XYZ      -2.3136
       YYZ     136.9160    XZZ     -45.7711    YZZ     -18.8466
       ZZZ     269.8954
    Hexadecapole Moments (Debye-Ang^3)
      XXXX   -1198.9324   XXXY     -58.2034   XXYY    -289.0642
      XYYY     -16.7834   YYYY    -227.7114   XXXZ    -337.1005
      XXYZ     -40.4661   XYYZ    -199.8599   YYYZ    -119.6990
      XXZZ    -293.2972   XYZZ      46.1783   YYZZ    -474.1473
      XZZZ    -241.4803   YZZZ      10.5299   ZZZZ   -2087.4590
 -----------------------------------------------------------------
 Calculating analytic gradient of the SCF energy
 Gradient of SCF Energy
            1           2           3           4           5           6
    1  -0.0028329   0.0004656  -0.0000873   0.0005365  -0.0001837   0.0007564
    2  -0.0008011  -0.0022407   0.0006774   0.0005705  -0.0003615   0.0078260
    3   0.0015351   0.0002642   0.0004982  -0.0013994  -0.0004410  -0.0019641
            7           8           9          10          11          12
    1   0.0005216   0.0019035  -0.0047257   0.0029064  -0.0002253  -0.0000310
    2   0.0006615  -0.0073252  -0.0033406   0.0063285   0.0005166   0.0015145
    3   0.0001077  -0.0003026   0.0048791  -0.0042023  -0.0006215   0.0004058
           13          14          15          16
    1   0.0000881  -0.0013265   0.0002476   0.0019867
    2   0.0000061  -0.0013636   0.0000210  -0.0026894
    3   0.0005961   0.0014344  -0.0008107   0.0000210
 Max gradient component =       7.826E-03
 RMS gradient           =       2.451E-03
 Gradient time:  CPU 1.92 s  wall 1.89 s
 Geometry Optimization Parameters
   NAtoms,    NIC,     NZ,  NCons,   NDum,   NFix, NCnnct, MaxDiis
       16     111       0       1       0       0       0       0

 Cartesian Hessian Update
 Hessian Updated using BFGS Update


** CONSTRAINED OPTIMIZATION IN DELOCALIZED INTERNAL COORDINATES **
   Searching for a Minimum

   Optimization Cycle:   3

                       Coordinates (Angstroms)
     ATOM                X               Y               Z
      1  S        -0.0188493586    0.1585121502    0.0311699307
      2  C         1.7015920003    0.1317504418   -0.0240925976
      3  H         2.2670852758    0.2139800856    0.8973533277
      4  C         2.2096823240    0.0004396172   -1.3191601847
      5  H         3.2692748898   -0.0000745515   -1.5441073381
      6  C         1.2030512133   -0.1268811816   -2.2758767634
      7  H         1.3805372557   -0.2121592965   -3.3417324876
      8  C        -0.0954580793   -0.0800797186   -1.7159257311
      9  C        -1.3371922299   -0.0588909686   -2.4018219344
     10  C        -2.4176338923    0.8333758088   -2.2061535890
     11  H        -2.4202952495    1.5932188202   -1.4331052838
     12  C        -3.4382732180    0.6602989343   -3.1405326662
     13  H        -4.3461475447    1.2503964769   -3.1693298287
     14  C        -3.1626402369   -0.3660648548   -4.0477614232
     15  H        -3.8006714102   -0.7227507406   -4.8486735107
     16  S        -1.6219667895   -1.0939209627   -3.8029386698
   Point Group: c1    Number of degrees of freedom:    42


   Energy is  -1104.563257303

              Constraints and their Current Values
                                        Value     Constraint
   Dihedral:        6   8   9  10     -130.000     -130.000
 Hessian Updated using BFGS Update

 40 Hessian modes will be used to form the next step
  Hessian Eigenvalues:
     0.020211    0.045000    0.045000    0.045000    0.045002    0.045002
     0.045004    0.045006    0.045011    0.045012    0.048020    0.159429
     0.159946    0.159967    0.159992    0.160000    0.160146    0.221282
     0.222025    0.237836    0.249972    0.250701    0.288561    0.294481
     0.296339    0.306990    0.312573    0.354777    0.354960    0.355129
     0.355224    0.358275    0.358827    0.378186    0.404881    0.427161
     0.460695    0.463582    0.497933    0.506302

 Minimum Search - Taking Simple RFO Step
 Searching for Lamda that Minimizes Along All modes
 Value Taken    Lamda =  -0.00144244
 Step Taken.  Stepsize is  0.248712

                             Maximum     Tolerance    Cnvgd?
         Gradient           0.004209      0.000300      NO
         Displacement       0.166547      0.001200      NO
         Energy change     -0.002194      0.000001      NO


 New Cartesian Coordinates Obtained by Inverse Iteration

 Displacement from previous Coordinates is:  0.632934
 ----------------------------------------------------------------
             Standard Nuclear Orientation (Angstroms)
    I     Atom           X                Y                Z
 ----------------------------------------------------------------
    1      S      -0.0075036353     0.1965590613     0.0345031086
    2      C       1.7055939739     0.2090499318    -0.0404231545
    3      H       2.2844648035     0.3457359009     0.8654221917
    4      C       2.2001627135     0.0048307103    -1.3319986093
    5      H       3.2579235057     0.0181302821    -1.5653971980
    6      C       1.1864093743    -0.1987940576    -2.2634261716
    7      H       1.3476654367    -0.3385249177    -3.3262036732
    8      C      -0.1120568694    -0.1491748834    -1.6937777079
    9      C      -1.3537172486    -0.1228785552    -2.3680533273
   10      C      -2.4331017045     0.7746101158    -2.1622772197
   11      H      -2.4428829217     1.4931954452    -1.3506525065
   12      C      -3.4255730511     0.6677811010    -3.1318955675
   13      H      -4.3245191687     1.2714090892    -3.1626496953
   14      C      -3.1331121691    -0.3068001200    -4.0906683996
   15      H      -3.7591325078    -0.6148030165    -4.9199063436
   16      S      -1.6185255815    -1.0691760271    -3.8352844762
 ----------------------------------------------------------------
 Nuclear Repulsion Energy =   629.4978564498 hartrees
 There are       43 alpha and       42 beta electrons
 Applying Cartesian multipole field
    Component          Value
    ---------          -----
     (2,0,0)        1.00000E-11
     (0,2,0)        2.00000E-11
     (0,0,2)       -3.00000E-11
 Nucleus-field energy     =    -0.0000000466 hartrees
 Requested basis set is 6-31++G(d,p)
 There are 76 shells and 234 basis functions
 A cutoff of  1.0D-12 yielded   2542 shell pairs
 There are     25082 function pairs

 Q-Chem warning in module /project/projectdirs/jcesr/qchem/qc44/cnl_qc441/compile/cori/qc_src/libqints/qchem/aobasis.C, line 68:

 Using reconstructed effective core potential

 Smallest overlap matrix eigenvalue = 1.07E-06
 No. of orbitals has changed due to linear dependencies.  Generating new SCF guess.
 Guess from superposition of atomic densities
 Warning:  Energy on first SCF cycle will be non-variational
 An unrestricted hybrid HF-DFT SCF calculation will be
 performed using Pulay DIIS extrapolation
 Exchange:     0.2000 Hartree-Fock + 0.0800 Slater + 0.7200 B88
 Correlation:  0.1900 VWN1RPA + 0.8100 LYP
 Using SG-1 standard quadrature grid
 SCF converges when DIIS error is below 1.0E-08
 Geometry optimization detected.  Setting ReadMinima to 0
 Setting SaveMinima to 0
 Inaccurate integrated density:
   Number of electrons =    85
   Numerical integral  =    86.000428547127
   Relative error      =     1.1769747613 %
 ---------------------------------------
  Cycle       Energy         DIIS Error
 ---------------------------------------
    1   -1107.1320948591      4.37E-02
    2   -1104.4388808897      3.95E-03
    3   -1104.2129275211      6.47E-03
    4   -1104.5552247956      1.02E-03
    5   -1104.5602248308      6.54E-04
    6   -1104.5637941918      1.63E-04
    7   -1104.5640538501      5.64E-05
    8   -1104.5641102540      1.44E-05
    9   -1104.5641352939      9.54E-06
   10   -1104.5641501504      6.02E-06
   11   -1104.5641553150      2.93E-06
   12   -1104.5641566601      1.61E-06
   13   -1104.5641567528      7.81E-07
   14   -1104.5641567962      1.92E-07
   15   -1104.5641567991      8.59E-08
   16   -1104.5641567994      3.34E-08
   17   -1104.5641567994      1.21E-08
   18   -1104.5641567995      5.90E-09 Convergence criterion met
 ---------------------------------------
 <S^2> = 0.7661
 SCF time:  CPU 12.16 s  wall 11.48 s
 SCF   energy in the final basis set = -1104.5641567995
 Total energy in the final basis set = -1104.5641567995
 
 --------------------------------------------------------------
 
                    Orbital Energies (a.u.)
 --------------------------------------------------------------
 
 Alpha MOs
 -- Occupied --
-89.098 -89.098 -10.432 -10.431 -10.418 -10.418 -10.392 -10.392
-10.379 -10.379  -8.157  -8.157  -6.121  -6.121  -6.117  -6.117
 -6.114  -6.114  -1.086  -1.061  -0.958  -0.932  -0.921  -0.880
 -0.787  -0.756  -0.727  -0.712  -0.699  -0.650  -0.596  -0.594
 -0.588  -0.582  -0.579  -0.556  -0.551  -0.533  -0.522  -0.463
 -0.439  -0.437  -0.397
 -- Virtual --
 -0.242  -0.190  -0.158  -0.157  -0.131  -0.123  -0.118  -0.110
 -0.099  -0.095  -0.091  -0.088  -0.082  -0.075  -0.071  -0.059
 -0.047  -0.037  -0.035  -0.027  -0.025  -0.017  -0.010  -0.007
 -0.001   0.003   0.007   0.010   0.012   0.015   0.022   0.024
  0.027   0.028   0.035   0.040   0.044   0.045   0.049   0.055
  0.068   0.071   0.077   0.080   0.091   0.096   0.101   0.103
  0.106   0.112   0.118   0.123   0.137   0.143   0.149   0.154
  0.164   0.177   0.185   0.200   0.207   0.219   0.234   0.236
  0.268   0.301   0.309   0.360   0.364   0.382   0.389   0.409
  0.411   0.448   0.456   0.467   0.470   0.492   0.492   0.502
  0.519   0.539   0.553   0.561   0.572   0.589   0.590   0.612
  0.614   0.643   0.652   0.662   0.668   0.698   0.744   0.767
  0.771   0.784   0.801   0.814   0.816   0.833   0.833   0.850
  0.851   0.864   0.871   0.896   0.921   0.925   0.929   0.947
  0.976   1.002   1.023   1.049   1.089   1.091   1.147   1.163
  1.166   1.176   1.176   1.217   1.267   1.276   1.299   1.347
  1.411   1.491   1.514   1.543   1.644   1.654   1.702   1.730
  1.733   1.750   1.783   1.810   1.840   1.854   1.894   1.894
  1.943   1.954   1.997   1.998   2.042   2.059   2.079   2.156
  2.200   2.203   2.243   2.260   2.279   2.299   2.320   2.325
  2.348   2.355   2.404   2.407   2.422   2.481   2.523   2.529
  2.567   2.664   2.665   2.723   2.748   2.974   3.016   3.107
  3.108   3.226   3.243   3.548   3.568   3.799   3.800   4.073
  4.096   4.134   4.146   4.236   4.341   4.486   4.527
 
 Beta MOs
 -- Occupied --
-89.098 -89.098 -10.430 -10.429 -10.413 -10.413 -10.391 -10.390
-10.379 -10.379  -8.157  -8.157  -6.121  -6.121  -6.118  -6.117
 -6.114  -6.114  -1.080  -1.055  -0.951  -0.929  -0.919  -0.870
 -0.783  -0.751  -0.723  -0.709  -0.698  -0.647  -0.592  -0.588
 -0.584  -0.576  -0.576  -0.547  -0.540  -0.532  -0.520  -0.437
 -0.436  -0.432
 -- Virtual --
 -0.331  -0.222  -0.175  -0.154  -0.153  -0.126  -0.118  -0.111
 -0.105  -0.098  -0.093  -0.090  -0.087  -0.081  -0.073  -0.071
 -0.059  -0.045  -0.036  -0.033  -0.026  -0.024  -0.016  -0.009
 -0.007  -0.001   0.003   0.008   0.011   0.014   0.016   0.022
  0.025   0.028   0.030   0.035   0.041   0.045   0.046   0.050
  0.057   0.068   0.072   0.079   0.082   0.092   0.098   0.102
  0.104   0.107   0.114   0.119   0.123   0.138   0.144   0.150
  0.155   0.165   0.179   0.187   0.202   0.209   0.222   0.235
  0.239   0.271   0.302   0.311   0.362   0.365   0.382   0.390
  0.411   0.412   0.449   0.457   0.469   0.475   0.495   0.504
  0.512   0.520   0.541   0.556   0.562   0.574   0.594   0.597
  0.616   0.618   0.648   0.655   0.667   0.673   0.700   0.746
  0.772   0.773   0.785   0.804   0.816   0.818   0.835   0.837
  0.851   0.853   0.865   0.872   0.899   0.923   0.926   0.931
  0.948   0.981   1.006   1.027   1.054   1.091   1.094   1.149
  1.169   1.172   1.183   1.183   1.220   1.272   1.282   1.306
  1.353   1.418   1.502   1.528   1.554   1.648   1.658   1.710
  1.732   1.735   1.754   1.785   1.815   1.845   1.859   1.899
  1.902   1.953   1.961   2.002   2.009   2.056   2.065   2.084
  2.162   2.203   2.206   2.245   2.266   2.284   2.301   2.325
  2.330   2.352   2.358   2.409   2.411   2.426   2.484   2.527
  2.533   2.573   2.667   2.668   2.725   2.750   2.975   3.017
  3.107   3.109   3.227   3.244   3.550   3.569   3.799   3.800
  4.079   4.103   4.138   4.149   4.243   4.348   4.489   4.531
 --------------------------------------------------------------
 
          Ground-State Mulliken Net Atomic Charges

     Atom                 Charge (a.u.)    Spin (a.u.)
  --------------------------------------------------------
      1 S                     0.117061      -0.049828
      2 C                     0.092449       0.324150
      3 H                     0.247993      -0.016710
      4 C                    -0.384769      -0.032428
      5 H                     0.170159       0.001036
      6 C                     0.244924       0.156885
      7 H                     0.169017      -0.009195
      8 C                    -0.149450       0.126682
      9 C                    -0.162659       0.125755
     10 C                     0.241526       0.156611
     11 H                     0.168959      -0.009161
     12 C                    -0.383447      -0.032421
     13 H                     0.169955       0.001036
     14 C                     0.090674       0.323896
     15 H                     0.247976      -0.016724
     16 S                     0.119631      -0.049584
  --------------------------------------------------------
  Sum of atomic charges =     1.000000
  Sum of spin   charges =     1.000000

 -----------------------------------------------------------------
                    Cartesian Multipole Moments
 -----------------------------------------------------------------
    Charge (ESU x 10^10)
                 4.8032
    Dipole Moment (Debye)
         X      -3.2185      Y       0.5485      Z     -10.2653
       Tot      10.7720
    Quadrupole Moments (Debye-Ang)
        XX     -32.8963     XY      -2.3597     YY     -68.6703
        XZ      23.8109     YZ       3.9555     ZZ     -27.7245
    Octopole Moments (Debye-Ang^2)
       XXX      86.6137    XXY      19.3043    XYY      39.5034
       YYY      16.5632    XXZ      35.0688    XYZ      -0.0018
       YYZ     138.3447    XZZ     -47.9196    YZZ     -17.8790
       ZZZ     264.5039
    Hexadecapole Moments (Debye-Ang^3)
      XXXX   -1201.1673   XXXY     -61.7665   XXYY    -289.2885
      XYYY     -16.0587   YYYY    -224.2053   XXXZ    -342.7258
      XXYZ     -47.9506   XYYZ    -204.0118   YYYZ    -124.4929
      XXZZ    -292.7842   XYZZ      36.6965   YYZZ    -480.2418
      XZZZ    -222.6287   YZZZ       1.4661   ZZZZ   -2062.0169
 -----------------------------------------------------------------
 Calculating analytic gradient of the SCF energy
 Gradient of SCF Energy
            1           2           3           4           5           6
    1   0.0009414  -0.0010308   0.0000720  -0.0006579   0.0000471   0.0033318
    2   0.0000813  -0.0002136  -0.0001238  -0.0001679   0.0000305   0.0083141
    3  -0.0006234   0.0016933  -0.0000195  -0.0024963   0.0002678   0.0002527
            7           8           9          10          11          12
    1  -0.0002657  -0.0026110  -0.0012458   0.0004074   0.0005043   0.0009665
    2   0.0006503  -0.0100148  -0.0052678   0.0061605   0.0003280   0.0013165
    3  -0.0000431  -0.0025524   0.0091912  -0.0065091  -0.0003655   0.0019607
           13          14          15          16
    1  -0.0000794   0.0005917  -0.0001469  -0.0008246
    2  -0.0001653  -0.0017283  -0.0000649   0.0008651
    3  -0.0002080  -0.0008072   0.0000822   0.0001766
 Max gradient component =       1.001E-02
 RMS gradient           =       2.934E-03
 Gradient time:  CPU 1.96 s  wall 1.90 s
 Geometry Optimization Parameters
   NAtoms,    NIC,     NZ,  NCons,   NDum,   NFix, NCnnct, MaxDiis
       16     111       0       1       0       0       0       0

 Cartesian Hessian Update
 Hessian Updated using BFGS Update


** CONSTRAINED OPTIMIZATION IN DELOCALIZED INTERNAL COORDINATES **
   Searching for a Minimum

   Optimization Cycle:   4

                       Coordinates (Angstroms)
     ATOM                X               Y               Z
      1  S        -0.0075036353    0.1965590613    0.0345031086
      2  C         1.7055939739    0.2090499318   -0.0404231545
      3  H         2.2844648035    0.3457359009    0.8654221917
      4  C         2.2001627135    0.0048307103   -1.3319986093
      5  H         3.2579235057    0.0181302821   -1.5653971980
      6  C         1.1864093743   -0.1987940576   -2.2634261716
      7  H         1.3476654367   -0.3385249177   -3.3262036732
      8  C        -0.1120568694   -0.1491748834   -1.6937777079
      9  C        -1.3537172486   -0.1228785552   -2.3680533273
     10  C        -2.4331017045    0.7746101158   -2.1622772197
     11  H        -2.4428829217    1.4931954452   -1.3506525065
     12  C        -3.4255730511    0.6677811010   -3.1318955675
     13  H        -4.3245191687    1.2714090892   -3.1626496953
     14  C        -3.1331121691   -0.3068001200   -4.0906683996
     15  H        -3.7591325078   -0.6148030165   -4.9199063436
     16  S        -1.6185255815   -1.0691760271   -3.8352844762
   Point Group: c1    Number of degrees of freedom:    42


   Energy is  -1104.564156800

              Constraints and their Current Values
                                        Value     Constraint
   Dihedral:        6   8   9  10     -130.000     -130.000
 Hessian Updated using BFGS Update

 41 Hessian modes will be used to form the next step
  Hessian Eigenvalues:
     0.016382    0.045000    0.045000    0.045000    0.045000    0.045002
     0.045002    0.045004    0.045009    0.045012    0.045386    0.047326
     0.159903    0.159946    0.159970    0.159992    0.160000    0.161882
     0.221282    0.222290    0.237841    0.250009    0.250113    0.291094
     0.294482    0.296686    0.312562    0.328072    0.354780    0.355032
     0.355129    0.355254    0.358273    0.358732    0.378352    0.404881
     0.424883    0.462058    0.463582    0.496052    0.497934

 Minimum Search - Taking Simple RFO Step
 Searching for Lamda that Minimizes Along All modes
 Value Taken    Lamda =  -0.00019641
 Step Taken.  Stepsize is  0.087999

                             Maximum     Tolerance    Cnvgd?
         Gradient           0.002692      0.000300      NO
         Displacement       0.064609      0.001200      NO
         Energy change     -0.000899      0.000001      NO


 New Cartesian Coordinates Obtained by Inverse Iteration

 Displacement from previous Coordinates is:  0.245259
 ----------------------------------------------------------------
             Standard Nuclear Orientation (Angstroms)
    I     Atom           X                Y                Z
 ----------------------------------------------------------------
    1      S      -0.0053762108     0.2058998309     0.0369444429
    2      C       1.7069854001     0.2376840702    -0.0490037074
    3      H       2.2896735114     0.3986657995     0.8504028137
    4      C       2.1963999697     0.0065570827    -1.3367453294
    5      H       3.2525605197     0.0240624359    -1.5769591318
    6      C       1.1786679355    -0.2247694544    -2.2591227259
    7      H       1.3367914608    -0.3882392564    -3.3190867915
    8      C      -0.1163878869    -0.1737427965    -1.6849040975
    9      C      -1.3619036795    -0.1448553691    -2.3556339826
   10      C      -2.4384154263     0.7531605037    -2.1456426716
   11      H      -2.4561363052     1.4545123617    -1.3191277586
   12      C      -3.4208190947     0.6704286328    -3.1295005965
   13      H      -4.3154738421     1.2804608413    -3.1588616769
   14      C      -3.1203907164    -0.2834117068    -4.1049112266
   15      H      -3.7379694673    -0.5712096049    -4.9475688376
   16      S      -1.6161112181    -1.0640533107    -3.8429674725
 ----------------------------------------------------------------
 Nuclear Repulsion Energy =   629.5995978311 hartrees
 There are       43 alpha and       42 beta electrons
 Applying Cartesian multipole field
    Component          Value
    ---------          -----
     (2,0,0)        1.00000E-11
     (0,2,0)        2.00000E-11
     (0,0,2)       -3.00000E-11
 Nucleus-field energy     =    -0.0000000467 hartrees
 Requested basis set is 6-31++G(d,p)
 There are 76 shells and 234 basis functions
 A cutoff of  1.0D-12 yielded   2544 shell pairs
 There are     25094 function pairs

 Q-Chem warning in module /project/projectdirs/jcesr/qchem/qc44/cnl_qc441/compile/cori/qc_src/libqints/qchem/aobasis.C, line 68:

 Using reconstructed effective core potential

 Smallest overlap matrix eigenvalue = 1.20E-06
 Guess MOs from SCF MO coefficient file
 Reading MOs from coefficient file
 Reading MOs from coefficient file
 An unrestricted hybrid HF-DFT SCF calculation will be
 performed using Pulay DIIS extrapolation
 Exchange:     0.2000 Hartree-Fock + 0.0800 Slater + 0.7200 B88
 Correlation:  0.1900 VWN1RPA + 0.8100 LYP
 Using SG-1 standard quadrature grid
 SCF converges when DIIS error is below 1.0E-08
 Geometry optimization detected.  Setting ReadMinima to 0
 Setting SaveMinima to 0
 ---------------------------------------
  Cycle       Energy         DIIS Error
 ---------------------------------------
    1   -1104.5646526136      7.24E-04
    2   -1104.5642111942      7.86E-05
    3   -1104.5640718521      1.59E-04
    4   -1104.5642779372      2.20E-05
    5   -1104.5642809789      1.15E-05
    6   -1104.5642819823      2.90E-06
    7   -1104.5642820512      1.06E-06
    8   -1104.5642820622      2.90E-07
    9   -1104.5642820631      1.18E-07
   10   -1104.5642820635      8.13E-08
   11   -1104.5642820632      2.59E-08
   12   -1104.5642820640      1.84E-08
   13   -1104.5642820634      8.39E-09 Convergence criterion met
 ---------------------------------------
 <S^2> = 0.7660
 SCF time:  CPU 8.76 s  wall 8.41 s
 SCF   energy in the final basis set = -1104.5642820634
 Total energy in the final basis set = -1104.5642820634
 
 --------------------------------------------------------------
 
                    Orbital Energies (a.u.)
 --------------------------------------------------------------
 
 Alpha MOs
 -- Occupied --
-89.098 -89.098 -10.432 -10.432 -10.418 -10.418 -10.393 -10.393
-10.379 -10.379  -8.157  -8.157  -6.121  -6.121  -6.117  -6.117
 -6.114  -6.114  -1.086  -1.061  -0.958  -0.932  -0.921  -0.880
 -0.787  -0.756  -0.727  -0.712  -0.700  -0.650  -0.596  -0.594
 -0.588  -0.582  -0.579  -0.556  -0.551  -0.533  -0.521  -0.464
 -0.440  -0.437  -0.397
 -- Virtual --
 -0.242  -0.189  -0.159  -0.156  -0.132  -0.123  -0.118  -0.111
 -0.099  -0.095  -0.092  -0.088  -0.082  -0.075  -0.071  -0.059
 -0.047  -0.037  -0.034  -0.027  -0.025  -0.017  -0.010  -0.007
 -0.002   0.002   0.007   0.010   0.012   0.015   0.021   0.024
  0.026   0.028   0.035   0.041   0.044   0.044   0.049   0.055
  0.068   0.071   0.078   0.080   0.092   0.095   0.100   0.103
  0.105   0.112   0.119   0.123   0.137   0.141   0.150   0.155
  0.164   0.176   0.185   0.200   0.207   0.219   0.233   0.236
  0.266   0.301   0.309   0.360   0.362   0.382   0.391   0.409
  0.410   0.448   0.455   0.466   0.468   0.492   0.492   0.502
  0.516   0.539   0.553   0.560   0.572   0.589   0.590   0.612
  0.615   0.643   0.654   0.661   0.669   0.698   0.745   0.767
  0.771   0.782   0.801   0.815   0.815   0.831   0.832   0.850
  0.851   0.863   0.870   0.895   0.921   0.927   0.930   0.944
  0.976   1.001   1.018   1.051   1.087   1.093   1.147   1.161
  1.165   1.173   1.176   1.217   1.265   1.270   1.303   1.342
  1.416   1.487   1.514   1.541   1.644   1.656   1.700   1.729
  1.733   1.751   1.781   1.807   1.841   1.851   1.894   1.894
  1.945   1.956   1.990   1.998   2.044   2.057   2.080   2.156
  2.199   2.204   2.241   2.261   2.278   2.299   2.320   2.325
  2.349   2.354   2.403   2.407   2.422   2.481   2.522   2.527
  2.567   2.663   2.664   2.723   2.747   2.974   3.016   3.106
  3.108   3.225   3.242   3.547   3.567   3.799   3.800   4.073
  4.094   4.135   4.146   4.235   4.341   4.485   4.526
 
 Beta MOs
 -- Occupied --
-89.098 -89.098 -10.430 -10.430 -10.413 -10.413 -10.391 -10.391
-10.379 -10.379  -8.157  -8.157  -6.121  -6.121  -6.117  -6.117
 -6.114  -6.114  -1.080  -1.055  -0.951  -0.929  -0.919  -0.870
 -0.783  -0.752  -0.722  -0.709  -0.698  -0.647  -0.592  -0.588
 -0.583  -0.577  -0.576  -0.547  -0.540  -0.532  -0.520  -0.438
 -0.436  -0.432
 -- Virtual --
 -0.331  -0.222  -0.174  -0.155  -0.153  -0.126  -0.118  -0.111
 -0.105  -0.098  -0.093  -0.091  -0.087  -0.081  -0.073  -0.071
 -0.059  -0.045  -0.036  -0.033  -0.027  -0.023  -0.016  -0.009
 -0.007  -0.001   0.003   0.008   0.011   0.014   0.017   0.022
  0.025   0.028   0.030   0.036   0.041   0.045   0.045   0.049
  0.056   0.068   0.073   0.079   0.082   0.093   0.097   0.101
  0.104   0.106   0.115   0.120   0.123   0.138   0.142   0.151
  0.157   0.165   0.177   0.187   0.202   0.209   0.221   0.234
  0.239   0.268   0.302   0.311   0.363   0.363   0.382   0.392
  0.411   0.412   0.449   0.457   0.468   0.473   0.496   0.503
  0.512   0.519   0.541   0.556   0.561   0.574   0.595   0.596
  0.616   0.618   0.648   0.657   0.666   0.673   0.700   0.746
  0.773   0.773   0.784   0.805   0.816   0.817   0.834   0.835
  0.852   0.852   0.864   0.872   0.897   0.923   0.927   0.932
  0.946   0.981   1.005   1.022   1.056   1.089   1.096   1.149
  1.167   1.171   1.180   1.184   1.220   1.271   1.276   1.311
  1.348   1.423   1.498   1.528   1.552   1.648   1.660   1.708
  1.730   1.735   1.755   1.783   1.812   1.846   1.856   1.899
  1.902   1.954   1.963   1.995   2.009   2.057   2.062   2.085
  2.162   2.203   2.207   2.244   2.268   2.283   2.301   2.324
  2.330   2.353   2.358   2.408   2.411   2.427   2.484   2.526
  2.531   2.572   2.665   2.667   2.725   2.750   2.975   3.017
  3.106   3.109   3.226   3.244   3.549   3.569   3.799   3.800
  4.079   4.101   4.139   4.149   4.241   4.348   4.489   4.530
 --------------------------------------------------------------
 
          Ground-State Mulliken Net Atomic Charges

     Atom                 Charge (a.u.)    Spin (a.u.)
  --------------------------------------------------------
      1 S                     0.116363      -0.050090
      2 C                     0.095639       0.323363
      3 H                     0.248406      -0.016687
      4 C                    -0.379701      -0.032574
      5 H                     0.170278       0.000991
      6 C                     0.225644       0.156798
      7 H                     0.166910      -0.009275
      8 C                    -0.137744       0.127901
      9 C                    -0.148874       0.127133
     10 C                     0.224166       0.156621
     11 H                     0.166896      -0.009249
     12 C                    -0.379221      -0.032608
     13 H                     0.170090       0.000992
     14 C                     0.094471       0.323299
     15 H                     0.248402      -0.016702
     16 S                     0.118275      -0.049913
  --------------------------------------------------------
  Sum of atomic charges =     1.000000
  Sum of spin   charges =     1.000000

 -----------------------------------------------------------------
                    Cartesian Multipole Moments
 -----------------------------------------------------------------
    Charge (ESU x 10^10)
                 4.8032
    Dipole Moment (Debye)
         X      -3.2097      Y       0.5824      Z     -10.2800
       Tot      10.7852
    Quadrupole Moments (Debye-Ang)
        XX     -33.0320     XY      -2.4146     YY     -68.7313
        XZ      23.7333     YZ       3.9841     ZZ     -27.5816
    Octopole Moments (Debye-Ang^2)
       XXX      87.4845    XXY      20.2706    XYY      40.0219
       YYY      16.5067    XXZ      35.6300    XYZ       0.9963
       YYZ     138.7118    XZZ     -48.3624    YZZ     -17.3738
       ZZZ     262.5978
    Hexadecapole Moments (Debye-Ang^3)
      XXXX   -1202.7681   XXXY     -63.7384   XXYY    -289.1656
      XYYY     -15.9232   YYYY    -223.8222   XXXZ    -346.0788
      XXYZ     -51.2076   XYYZ    -205.1846   YYYZ    -126.1211
      XXZZ    -293.4998   XYZZ      32.5169   YYZZ    -481.8649
      XZZZ    -216.4991   YZZZ      -2.4997   ZZZZ   -2051.2790
 -----------------------------------------------------------------
 Calculating analytic gradient of the SCF energy
 Gradient of SCF Energy
            1           2           3           4           5           6
    1   0.0008921  -0.0007622   0.0001011  -0.0002178   0.0000389   0.0019567
    2   0.0000966   0.0004266  -0.0002173  -0.0002491   0.0000888   0.0084915
    3  -0.0005609   0.0009145  -0.0000217  -0.0010937   0.0002471   0.0001512
            7           8           9          10          11          12
    1  -0.0003009  -0.0003057  -0.0036075   0.0016892   0.0004642   0.0002809
    2   0.0004305  -0.0109016  -0.0045335   0.0057612   0.0002261   0.0005148
    3  -0.0001012  -0.0029872   0.0096510  -0.0062916  -0.0001940   0.0010007
           13          14          15          16
    1  -0.0000460   0.0007105  -0.0001835  -0.0007097
    2  -0.0001102  -0.0006876  -0.0001046   0.0007676
    3  -0.0002378  -0.0007912   0.0001677   0.0001471
 Max gradient component =       1.090E-02
 RMS gradient           =       2.941E-03
 Gradient time:  CPU 1.95 s  wall 1.89 s
 Geometry Optimization Parameters
   NAtoms,    NIC,     NZ,  NCons,   NDum,   NFix, NCnnct, MaxDiis
       16     111       0       1       0       0       0       0

 Cartesian Hessian Update
 Hessian Updated using BFGS Update


** CONSTRAINED OPTIMIZATION IN DELOCALIZED INTERNAL COORDINATES **
   Searching for a Minimum

   Optimization Cycle:   5

                       Coordinates (Angstroms)
     ATOM                X               Y               Z
      1  S        -0.0053762108    0.2058998309    0.0369444429
      2  C         1.7069854001    0.2376840702   -0.0490037074
      3  H         2.2896735114    0.3986657995    0.8504028137
      4  C         2.1963999697    0.0065570827   -1.3367453294
      5  H         3.2525605197    0.0240624359   -1.5769591318
      6  C         1.1786679355   -0.2247694544   -2.2591227259
      7  H         1.3367914608   -0.3882392564   -3.3190867915
      8  C        -0.1163878869   -0.1737427965   -1.6849040975
      9  C        -1.3619036795   -0.1448553691   -2.3556339826
     10  C        -2.4384154263    0.7531605037   -2.1456426716
     11  H        -2.4561363052    1.4545123617   -1.3191277586
     12  C        -3.4208190947    0.6704286328   -3.1295005965
     13  H        -4.3154738421    1.2804608413   -3.1588616769
     14  C        -3.1203907164   -0.2834117068   -4.1049112266
     15  H        -3.7379694673   -0.5712096049   -4.9475688376
     16  S        -1.6161112181   -1.0640533107   -3.8429674725
   Point Group: c1    Number of degrees of freedom:    42


   Energy is  -1104.564282063

              Constraints and their Current Values
                                        Value     Constraint
   Dihedral:        6   8   9  10     -130.000     -130.000
 Hessian Updated using BFGS Update

 41 Hessian modes will be used to form the next step
  Hessian Eigenvalues:
     0.015589    0.042496    0.045000    0.045000    0.045000    0.045000
     0.045002    0.045002    0.045004    0.045011    0.045026    0.047328
     0.157407    0.159935    0.159946    0.159992    0.160000    0.160022
     0.221284    0.222070    0.237845    0.247326    0.250148    0.286176
     0.294482    0.296187    0.298173    0.312574    0.354773    0.354956
     0.355129    0.355168    0.358274    0.358745    0.380089    0.404882
     0.426813    0.448434    0.463582    0.485836    0.497938

 Minimum Search - Taking Simple RFO Step
 Searching for Lamda that Minimizes Along All modes
 Value Taken    Lamda =  -0.00004649
 Step Taken.  Stepsize is  0.034319

                             Maximum     Tolerance    Cnvgd?
         Gradient           0.001414      0.000300      NO
         Displacement       0.022598      0.001200      NO
         Energy change     -0.000125      0.000001      NO


 New Cartesian Coordinates Obtained by Inverse Iteration

 Displacement from previous Coordinates is:  0.084174
 ----------------------------------------------------------------
             Standard Nuclear Orientation (Angstroms)
    I     Atom           X                Y                Z
 ----------------------------------------------------------------
    1      S      -0.0057465211     0.2076752198     0.0384362208
    2      C       1.7074033621     0.2460036950    -0.0524773026
    3      H       2.2907708975     0.4169877639     0.8446528124
    4      C       2.1945722324     0.0074871882    -1.3385727576
    5      H       3.2497930726     0.0253017307    -1.5829139875
    6      C       1.1749958249    -0.2321063826    -2.2581527781
    7      H       1.3341193642    -0.4063083721    -3.3162518285
    8      C      -0.1174182475    -0.1804323665    -1.6821895158
    9      C      -1.3647080836    -0.1504762376    -2.3515361746
   10      C      -2.4392604860     0.7468976928    -2.1403117015
   11      H      -2.4633986644     1.4410485617    -1.3079157694
   12      C      -3.4185831875     0.6713705433    -3.1291497884
   13      H      -4.3116447802     1.2838429357    -3.1565894048
   14      C      -3.1158482496    -0.2761206206    -4.1085105588
   15      H      -3.7286865776    -0.5563591951    -4.9571643480
   16      S      -1.6142650063    -1.0636620965    -3.8440418674
 ----------------------------------------------------------------
 Nuclear Repulsion Energy =   629.6561115058 hartrees
 There are       43 alpha and       42 beta electrons
 Applying Cartesian multipole field
    Component          Value
    ---------          -----
[...]
    9   -1104.5643134309      3.22E-09 Convergence criterion met
 ---------------------------------------
 <S^2> = 0.7659
 SCF time:  CPU 5.88 s  wall 5.78 s
 SCF   energy in the final basis set = -1104.5643134309
 Total energy in the final basis set = -1104.5643134309
 
 --------------------------------------------------------------
 
                    Orbital Energies (a.u.)
 --------------------------------------------------------------
 
 Alpha MOs
 -- Occupied --
-89.098 -89.098 -10.432 -10.432 -10.418 -10.418 -10.393 -10.393
-10.379 -10.379  -8.157  -8.157  -6.121  -6.121  -6.117  -6.117
 -6.114  -6.114  -1.086  -1.061  -0.958  -0.932  -0.921  -0.881
 -0.787  -0.756  -0.727  -0.712  -0.700  -0.650  -0.596  -0.594
 -0.587  -0.583  -0.579  -0.556  -0.551  -0.533  -0.521  -0.464
 -0.440  -0.437  -0.397
 -- Virtual --
 -0.242  -0.189  -0.159  -0.156  -0.132  -0.123  -0.117  -0.111
 -0.099  -0.095  -0.092  -0.088  -0.082  -0.074  -0.072  -0.059
 -0.047  -0.037  -0.034  -0.027  -0.025  -0.016  -0.010  -0.007
 -0.002   0.002   0.007   0.010   0.012   0.015   0.021   0.024
  0.026   0.028   0.035   0.041   0.044   0.044   0.049   0.055
  0.068   0.071   0.078   0.081   0.092   0.095   0.100   0.103
  0.105   0.113   0.119   0.123   0.137   0.141   0.150   0.156
  0.164   0.175   0.185   0.200   0.207   0.219   0.233   0.236
  0.265   0.302   0.310   0.361   0.362   0.382   0.392   0.410
  0.410   0.448   0.454   0.465   0.468   0.492   0.492   0.502
  0.515   0.540   0.553   0.560   0.572   0.588   0.590   0.613
  0.615   0.643   0.655   0.661   0.669   0.697   0.745   0.768
  0.771   0.781   0.801   0.814   0.816   0.831   0.832   0.850
  0.850   0.863   0.870   0.895   0.921   0.927   0.931   0.944
  0.976   1.000   1.018   1.052   1.087   1.094   1.148   1.162
  1.164   1.171   1.176   1.217   1.264   1.268   1.307   1.339
  1.418   1.486   1.514   1.540   1.644   1.657   1.699   1.729
  1.732   1.751   1.780   1.807   1.841   1.851   1.894   1.895
  1.946   1.957   1.988   1.998   2.044   2.057   2.080   2.157
  2.199   2.204   2.241   2.262   2.278   2.299   2.320   2.326
  2.349   2.353   2.403   2.407   2.422   2.481   2.522   2.526
  2.568   2.663   2.663   2.724   2.748   2.974   3.016   3.106
  3.108   3.225   3.243   3.547   3.568   3.799   3.799   4.073
  4.093   4.136   4.146   4.234   4.341   4.485   4.526
 
 Beta MOs
 -- Occupied --
-89.098 -89.098 -10.430 -10.430 -10.413 -10.413 -10.391 -10.391
-10.380 -10.380  -8.157  -8.157  -6.121  -6.121  -6.117  -6.117
 -6.114  -6.114  -1.080  -1.055  -0.951  -0.929  -0.919  -0.870
 -0.783  -0.752  -0.722  -0.709  -0.698  -0.647  -0.592  -0.588
 -0.583  -0.577  -0.577  -0.547  -0.540  -0.532  -0.520  -0.438
 -0.436  -0.432
 -- Virtual --
 -0.331  -0.222  -0.173  -0.155  -0.153  -0.126  -0.118  -0.111
 -0.105  -0.098  -0.094  -0.091  -0.087  -0.081  -0.073  -0.071
 -0.059  -0.045  -0.036  -0.033  -0.027  -0.023  -0.016  -0.009
 -0.006  -0.001   0.003   0.008   0.011   0.014   0.017   0.022
  0.025   0.028   0.030   0.036   0.042   0.045   0.045   0.049
  0.056   0.069   0.073   0.079   0.082   0.094   0.097   0.100
  0.104   0.106   0.115   0.120   0.123   0.138   0.142   0.151
  0.158   0.165   0.177   0.187   0.202   0.209   0.221   0.234
  0.239   0.268   0.303   0.312   0.363   0.363   0.383   0.393
  0.411   0.412   0.449   0.456   0.468   0.472   0.496   0.502
  0.511   0.518   0.542   0.556   0.561   0.575   0.595   0.595
  0.616   0.618   0.648   0.658   0.666   0.674   0.700   0.747
  0.773   0.773   0.783   0.805   0.815   0.817   0.834   0.834
  0.852   0.852   0.864   0.871   0.897   0.923   0.927   0.933
  0.945   0.981   1.005   1.022   1.057   1.090   1.097   1.151
  1.167   1.170   1.179   1.183   1.220   1.269   1.274   1.315
  1.344   1.424   1.496   1.528   1.551   1.648   1.661   1.708
  1.730   1.735   1.755   1.782   1.812   1.846   1.856   1.899
  1.903   1.955   1.964   1.993   2.009   2.057   2.062   2.086
  2.163   2.203   2.206   2.244   2.269   2.283   2.301   2.324
  2.331   2.353   2.356   2.408   2.411   2.427   2.484   2.526
  2.531   2.573   2.666   2.666   2.726   2.750   2.975   3.017
  3.106   3.109   3.226   3.245   3.549   3.569   3.799   3.800
  4.079   4.101   4.139   4.149   4.241   4.348   4.489   4.530
 --------------------------------------------------------------
 
          Ground-State Mulliken Net Atomic Charges

     Atom                 Charge (a.u.)    Spin (a.u.)
  --------------------------------------------------------
      1 S                     0.116369      -0.050051
      2 C                     0.096946       0.322698
      3 H                     0.248609      -0.016618
      4 C                    -0.378980      -0.032783
      5 H                     0.170164       0.000944
      6 C                     0.217018       0.157252
      7 H                     0.166161      -0.009257
      8 C                    -0.132169       0.128112
      9 C                    -0.140856       0.127600
     10 C                     0.217525       0.157063
     11 H                     0.166264      -0.009236
     12 C                    -0.379640      -0.032777
     13 H                     0.169960       0.000941
     14 C                     0.096594       0.322611
     15 H                     0.248662      -0.016621
     16 S                     0.117372      -0.049879
  --------------------------------------------------------
  Sum of atomic charges =     1.000000
  Sum of spin   charges =     1.000000

 -----------------------------------------------------------------
                    Cartesian Multipole Moments
 -----------------------------------------------------------------
    Charge (ESU x 10^10)
                 4.8032
    Dipole Moment (Debye)
         X      -3.2070      Y       0.5901      Z     -10.2824
       Tot      10.7871
    Quadrupole Moments (Debye-Ang)
        XX     -33.0804     XY      -2.4585     YY     -68.7479
        XZ      23.6496     YZ       4.0103     ZZ     -27.5542
    Octopole Moments (Debye-Ang^2)
       XXX      87.7989    XXY      20.6487    XYY      40.1990
       YYY      16.4558    XXZ      35.9098    XYZ       1.3966
       YYZ     138.7822    XZZ     -48.2969    YZZ     -17.2644
       ZZZ     262.0168
    Hexadecapole Moments (Debye-Ang^3)
      XXXX   -1203.3900   XXXY     -64.7009   XXYY    -288.9644
      XYYY     -15.8179   YYYY    -223.9397   XXXZ    -347.9407
      XXYZ     -52.3161   XYYZ    -205.4553   YYYZ    -126.4438
      XXZZ    -294.2166   XYZZ      30.9556   YYZZ    -482.1572
      XZZZ    -214.8332   YZZZ      -3.5069   ZZZZ   -2047.2612
 -----------------------------------------------------------------
 Calculating analytic gradient of the SCF energy
 Gradient of SCF Energy
            1           2           3           4           5           6
    1  -0.0000613   0.0000371  -0.0000140   0.0000092  -0.0000038   0.0002072
    2   0.0000206   0.0000349   0.0000122   0.0000229   0.0000037   0.0089737
    3   0.0000248  -0.0000448   0.0000127   0.0000708   0.0000014  -0.0001435
            7           8           9          10          11          12
    1   0.0000195   0.0017232  -0.0054570   0.0035051  -0.0000045  -0.0000096
    2   0.0000165  -0.0111315  -0.0034259   0.0055176   0.0000280  -0.0000391
    3   0.0000085  -0.0035554   0.0098632  -0.0061337  -0.0000343  -0.0000692
           13          14          15          16
    1   0.0000039  -0.0000193   0.0000084   0.0000558
    2  -0.0000060   0.0000504  -0.0000332  -0.0000448
    3  -0.0000078   0.0000082  -0.0000008  -0.0000002
 Max gradient component =       1.113E-02
 RMS gradient           =       3.025E-03
 Gradient time:  CPU 1.97 s  wall 1.93 s
 Geometry Optimization Parameters
   NAtoms,    NIC,     NZ,  NCons,   NDum,   NFix, NCnnct, MaxDiis
       16     111       0       1       0       0       0       0

 Cartesian Hessian Update
 Hessian Updated using BFGS Update


** CONSTRAINED OPTIMIZATION IN DELOCALIZED INTERNAL COORDINATES **
   Searching for a Minimum

   Optimization Cycle:   8

                       Coordinates (Angstroms)
     ATOM                X               Y               Z
      1  S        -0.0057784689    0.2077920036    0.0386375224
      2  C         1.7078926009    0.2451367710   -0.0524764403
      3  H         2.2907156675    0.4181847267    0.8446137142
      4  C         2.1947142039    0.0077401016   -1.3386850594
      5  H         3.2497615008    0.0245291084   -1.5838877109
      6  C         1.1748947555   -0.2311782609   -2.2584216810
      7  H         1.3355260016   -0.4090934907   -3.3156773158
      8  C        -0.1171972753   -0.1793763980   -1.6825115786
      9  C        -1.3645870823   -0.1494039046   -2.3516730340
     10  C        -2.4389887236    0.7476664280   -2.1406947056
     11  H        -2.4665208124    1.4395404425   -1.3064986102
     12  C        -3.4185574470    0.6716327670   -3.1294700999
     13  H        -4.3117367199    1.2839999041   -3.1558168386
     14  C        -3.1163550423   -0.2765189319   -4.1080612434
     15  H        -3.7276626855   -0.5557171793   -4.9581674577
     16  S        -1.6140255230   -1.0637840275   -3.8438982113
   Point Group: c1    Number of degrees of freedom:    42


   Energy is  -1104.564313431

              Constraints and their Current Values
                                        Value     Constraint
   Dihedral:        6   8   9  10     -130.000     -130.000
 Hessian Updated using BFGS Update

 41 Hessian modes will be used to form the next step
  Hessian Eigenvalues:
     0.015727    0.020827    0.044833    0.045000    0.045000    0.045000
     0.045002    0.045002    0.045004    0.045011    0.045024    0.046567
     0.158392    0.159807    0.159948    0.159993    0.160000    0.160147
     0.221284    0.221981    0.237879    0.247465    0.250145    0.284851
     0.294452    0.296302    0.298895    0.312570    0.354773    0.354949
     0.355129    0.355169    0.358273    0.358747    0.381415    0.404910
     0.425657    0.448226    0.463566    0.485141    0.497938

 Minimum Search - Taking Simple RFO Step
 Searching for Lamda that Minimizes Along All modes
 Value Taken    Lamda =   0.00000000
 Step Taken.  Stepsize is  0.001732

                             Maximum     Tolerance    Cnvgd?
         Gradient           0.000096      0.000300     YES
         Displacement       0.001043      0.001200     YES
         Energy change     -0.000001      0.000001     YES

 Final energy is   -1104.56431343094     


 ******************************
 **  OPTIMIZATION CONVERGED  **
 ******************************

                       Coordinates (Angstroms)
     ATOM                X               Y               Z
      1  S        -0.0057784689    0.2077920036    0.0386375224
      2  C         1.7078926009    0.2451367710   -0.0524764403
      3  H         2.2907156675    0.4181847267    0.8446137142
      4  C         2.1947142039    0.0077401016   -1.3386850594
      5  H         3.2497615008    0.0245291084   -1.5838877109
      6  C         1.1748947555   -0.2311782609   -2.2584216810
      7  H         1.3355260016   -0.4090934907   -3.3156773158
      8  C        -0.1171972753   -0.1793763980   -1.6825115786
      9  C        -1.3645870823   -0.1494039046   -2.3516730340
     10  C        -2.4389887236    0.7476664280   -2.1406947056
     11  H        -2.4665208124    1.4395404425   -1.3064986102
     12  C        -3.4185574470    0.6716327670   -3.1294700999
     13  H        -4.3117367199    1.2839999041   -3.1558168386
     14  C        -3.1163550423   -0.2765189319   -4.1080612434
     15  H        -3.7276626855   -0.5557171793   -4.9581674577
     16  S        -1.6140255230   -1.0637840275   -3.8438982113

Z-matrix Print:
$molecule
1 2
S 
C  1 1.716498
H  2 1.083697 1 119.765902
C  2 1.395595 1 113.170761 3 178.669112 0
H  4 1.083296 2 123.072660 1 178.080225 0
C  4 1.393926 2 112.460668 1 -1.092261 0
H  6 1.084087 4 124.278142 2 178.163470 0
C  6 1.415577 4 113.146584 2 -0.008097 0
C  8 1.415859 6 127.781727 4 168.426003 0
C  9 1.415481 8 127.712004 6 -130.000000 0
H  10 1.084127 9 122.576117 8 -9.690118 0
C  10 1.393920 9 113.148158 8 168.483400 0
H  12 1.083262 10 124.461264 9 -179.134334 0
C  12 1.395693 10 112.473408 9 0.003346 0
H  14 1.083665 12 127.079115 10 177.433658 0
S  14 1.716555 12 113.151794 10 -1.117419 0
$end

 
 --------------------------------------------------------------
 
                    Orbital Energies (a.u.)
 --------------------------------------------------------------
 
 Alpha MOs
 -- Occupied --
-89.098 -89.098 -10.432 -10.432 -10.418 -10.418 -10.393 -10.393
-10.379 -10.379  -8.157  -8.157  -6.121  -6.121  -6.117  -6.117
 -6.114  -6.114  -1.086  -1.061  -0.958  -0.932  -0.921  -0.881
 -0.787  -0.756  -0.727  -0.712  -0.700  -0.650  -0.596  -0.594
 -0.587  -0.583  -0.579  -0.556  -0.551  -0.533  -0.521  -0.464
 -0.440  -0.437  -0.397
 -- Virtual --
 -0.242  -0.189  -0.159  -0.156  -0.132  -0.123  -0.117  -0.111
 -0.099  -0.095  -0.092  -0.088  -0.082  -0.074  -0.072  -0.059
 -0.047  -0.037  -0.034  -0.027  -0.025  -0.016  -0.010  -0.007
 -0.002   0.002   0.007   0.010   0.012   0.015   0.021   0.024
  0.026   0.028   0.035   0.041   0.044   0.044   0.049   0.055
  0.068   0.071   0.078   0.081   0.092   0.095   0.100   0.103
  0.105   0.113   0.119   0.123   0.137   0.141   0.150   0.156
  0.164   0.175   0.185   0.200   0.207   0.219   0.233   0.236
  0.265   0.302   0.310   0.361   0.362   0.382   0.392   0.410
  0.410   0.448   0.454   0.465   0.468   0.492   0.492   0.502
  0.515   0.540   0.553   0.560   0.572   0.588   0.590   0.613
  0.615   0.643   0.655   0.661   0.669   0.697   0.745   0.768
  0.771   0.781   0.801   0.814   0.816   0.831   0.832   0.850
  0.850   0.863   0.870   0.895   0.921   0.927   0.931   0.944
  0.976   1.000   1.018   1.052   1.087   1.094   1.148   1.162
  1.164   1.171   1.176   1.217   1.264   1.268   1.307   1.339
  1.418   1.486   1.514   1.540   1.644   1.657   1.699   1.729
  1.732   1.751   1.780   1.807   1.841   1.851   1.894   1.895
  1.946   1.957   1.988   1.998   2.044   2.057   2.080   2.157
  2.199   2.204   2.241   2.262   2.278   2.299   2.320   2.326
  2.349   2.353   2.403   2.407   2.422   2.481   2.522   2.526
  2.568   2.663   2.663   2.724   2.748   2.974   3.016   3.106
  3.108   3.225   3.243   3.547   3.568   3.799   3.799   4.073
  4.093   4.136   4.146   4.234   4.341   4.485   4.526
 
 Beta MOs
 -- Occupied --
-89.098 -89.098 -10.430 -10.430 -10.413 -10.413 -10.391 -10.391
-10.380 -10.380  -8.157  -8.157  -6.121  -6.121  -6.117  -6.117
 -6.114  -6.114  -1.080  -1.055  -0.951  -0.929  -0.919  -0.870
 -0.783  -0.752  -0.722  -0.709  -0.698  -0.647  -0.592  -0.588
 -0.583  -0.577  -0.577  -0.547  -0.540  -0.532  -0.520  -0.438
 -0.436  -0.432
 -- Virtual --
 -0.331  -0.222  -0.173  -0.155  -0.153  -0.126  -0.118  -0.111
 -0.105  -0.098  -0.094  -0.091  -0.087  -0.081  -0.073  -0.071
 -0.059  -0.045  -0.036  -0.033  -0.027  -0.023  -0.016  -0.009
 -0.006  -0.001   0.003   0.008   0.011   0.014   0.017   0.022
  0.025   0.028   0.030   0.036   0.042   0.045   0.045   0.049
  0.056   0.069   0.073   0.079   0.082   0.094   0.097   0.100
  0.104   0.106   0.115   0.120   0.123   0.138   0.142   0.151
  0.158   0.165   0.177   0.187   0.202   0.209   0.221   0.234
  0.239   0.268   0.303   0.312   0.363   0.363   0.383   0.393
  0.411   0.412   0.449   0.456   0.468   0.472   0.496   0.502
  0.511   0.518   0.542   0.556   0.561   0.575   0.595   0.595
  0.616   0.618   0.648   0.658   0.666   0.674   0.700   0.747
  0.773   0.773   0.783   0.805   0.815   0.817   0.834   0.834
  0.852   0.852   0.864   0.871   0.897   0.923   0.927   0.933
  0.945   0.981   1.005   1.022   1.057   1.090   1.097   1.151
  1.167   1.170   1.179   1.183   1.220   1.269   1.274   1.315
  1.344   1.424   1.496   1.528   1.551   1.648   1.661   1.708
  1.730   1.735   1.755   1.782   1.812   1.846   1.856   1.899
  1.903   1.955   1.964   1.993   2.009   2.057   2.062   2.086
  2.163   2.203   2.206   2.244   2.269   2.283   2.301   2.324
  2.331   2.353   2.356   2.408   2.411   2.427   2.484   2.526
  2.531   2.573   2.666   2.666   2.726   2.750   2.975   3.017
  3.106   3.109   3.226   3.245   3.549   3.569   3.799   3.800
  4.079   4.101   4.139   4.149   4.241   4.348   4.489   4.530
 --------------------------------------------------------------
 
          Ground-State Mulliken Net Atomic Charges

     Atom                 Charge (a.u.)    Spin (a.u.)
  --------------------------------------------------------
      1 S                     0.116369      -0.050051
      2 C                     0.096946       0.322698
      3 H                     0.248609      -0.016618
      4 C                    -0.378980      -0.032783
      5 H                     0.170164       0.000944
      6 C                     0.217018       0.157252
      7 H                     0.166161      -0.009257
      8 C                    -0.132169       0.128112
      9 C                    -0.140856       0.127600
     10 C                     0.217525       0.157063
     11 H                     0.166264      -0.009236
     12 C                    -0.379640      -0.032777
     13 H                     0.169960       0.000941
     14 C                     0.096594       0.322611
     15 H                     0.248662      -0.016621
     16 S                     0.117372      -0.049879
  --------------------------------------------------------
  Sum of atomic charges =     1.000000
  Sum of spin   charges =     1.000000

 -----------------------------------------------------------------
                    Cartesian Multipole Moments
 -----------------------------------------------------------------
    Charge (ESU x 10^10)
                 4.8032
    Dipole Moment (Debye)
         X      -3.2070      Y       0.5901      Z     -10.2824
       Tot      10.7871
    Quadrupole Moments (Debye-Ang)
        XX     -33.0804     XY      -2.4585     YY     -68.7479
        XZ      23.6496     YZ       4.0103     ZZ     -27.5542
    Octopole Moments (Debye-Ang^2)
       XXX      87.7989    XXY      20.6487    XYY      40.1990
       YYY      16.4558    XXZ      35.9098    XYZ       1.3966
       YYZ     138.7822    XZZ     -48.2969    YZZ     -17.2644
       ZZZ     262.0168
    Hexadecapole Moments (Debye-Ang^3)
      XXXX   -1203.3900   XXXY     -64.7009   XXYY    -288.9644
      XYYY     -15.8179   YYYY    -223.9397   XXXZ    -347.9407
      XXYZ     -52.3161   XYYZ    -205.4553   YYYZ    -126.4438
      XXZZ    -294.2166   XYZZ      30.9556   YYZZ    -482.1572
      XZZZ    -214.8332   YZZZ      -3.5069   ZZZZ   -2047.2612
 -----------------------------------------------------------------
Archival summary:
1\1\nid00867\OPT\ProcedureUnspecified\BasisUnspecified\286(1+,2)\bwood\WedMay3102:27:222017WedMay3102:27:222017\0\\#,OPT,ProcedureUnspecified,BasisUnspecified,\\1,2\S\C,1,1.7165\H,2,1.0837,1,119.766\C,2,1.39559,1,113.171,3,178.669,0\H,4,1.0833,2,123.073,1,178.08,0\C,4,1.39393,2,112.461,1,-1.09226,0\H,6,1.08409,4,124.278,2,178.163,0\C,6,1.41558,4,113.147,2,-0.00809687,0\C,8,1.41586,6,127.782,4,168.426,0\C,9,1.41548,8,127.712,6,-130,0\H,10,1.08413,9,122.576,8,-9.69012,0\C,10,1.39392,9,113.148,8,168.483,0\H,12,1.08326,10,124.461,9,-179.134,0\C,12,1.39569,10,112.473,9,0.00334567,0\H,14,1.08366,12,127.079,10,177.434,0\S,14,1.71656,12,113.152,10,-1.11742,0\\\@

 Total job time:  92.19s(wall), 92.00s(cpu) 
 Wed May 31 02:27:22 2017

        *************************************************************
        *                                                           *
        *  Thank you very much for using Q-Chem.  Have a nice day.  *
        *                                                           *
        *************************************************************


0 sent ACK to 0 
now end server 0 ... 
