srun -N 1 --ntasks-per-node 16 --cpus-per-task 4 --cpu_bind=cores --nodelist nid00852 /global/project/projectdirs/jcesr/qchem/qc44/cnl_qc441/dist/exe/qcprog.cori.haswell.exe .pt_n2_cation_-150.0.in.26958.qcin.1 /global/cscratch1/sd/bwood/qchem/nx/qchem26958/
Process 1 of 16 is on nid00852 - thread support 0
Process 2 of 16 is on nid00852 - thread support 0
Process 3 of 16 is on nid00852 - thread support 0
Process 4 of 16 is on nid00852 - thread support 0
Process 5 of 16 is on nid00852 - thread support 0
Process 6 of 16 is on nid00852 - thread support 0
Process 0 of 16 is on nid00852 - thread support 0
initial socket setup ...start
Process 15 of 16 is on nid00852 - thread support 0
initial socket setup ...done 
now start server 0 ... 
nid00852 10.128.3
Q-Chem Developer Version! Running on 10.128.3.*
                  Welcome to Q-Chem
     A Quantum Leap Into The Future Of Chemistry


 Q-Chem 4.4, Q-Chem, Inc., Pleasanton, CA (2016)

 Y. Shao,  Z. Gan,  E. Epifanovsky,  A. T. B. Gilbert,  M. Wormit,  
 J. Kussmann,  A. W. Lange,  A. Behn,  J. Deng,  X. Feng,  D. Ghosh,  
 M. Goldey,  P. R. Horn,  L. D. Jacobson,  I. Kaliman,  F. Rob,  
 R. Z. Khaliullin,  T. Kus,  A. Landau,  J. Liu,  E. I. Proynov,  Y. M. Rhee,  
 R. M. Richard,  M. A. Rohrdanz,  R. P. Steele,  E. J. Sundstrom,  
 H. L. Woodcock III,  P. M. Zimmerman,  D. Zuev,  B. Albrecht,  E. Alguire,  
 B. Austin,  S. A. Baeppler,  G. J. O. Beran,  Y. A. Bernard,  
 E. J. Berquist,  K. Brandhorst,  K. B. Bravaya,  S. T. Brown,  D. Casanova,  
 C.-M. Chang,  Y. Chen,  S. H. Chien,  K. D. Closser,  M. P. Coons,  
 D. L. Crittenden,  S. Dasgupta,  M. Diedenhofen,  R. A. DiStasio Jr.,  
 H. Do,  A. D. Dutoi,  R. G. Edgar,  P.-T. Fang,  S. Fatehi,  Q. Feng,  
 L. Fusti-Molnar,  A. Ghysels,  A. Golubeva-Zadorozhnaya,  J. Gomes,  
 A. Gunina,  M. W. D. Hanson-Heine,  P. H. P. Harbach,  A. W. Hauser,  
 J. E. Herr,  E. G. Hohenstein,  Z. C. Holden,  K. Hui,  T.-C. Jagau,  H. Ji,  
 B. Kaduk,  K. Khistyaev,  Jaehoon Kim,  Jihan Kim,  R. A. King,  
 P. Klunzinger,  K. Koh,  D. Kosenkov,  T. Kowalczyk,  C. M. Krauter,  
 A. Kunitsa,  K. U. Lao,  A. Laurent,  K. V. Lawler,  J. Lee,  D. Lefrancois,  
 S. Lehtola,  S. V. Levchenko,  C. Y. Lin,  Y.-S. Lin,  F. Liu,  E. Livshits,  
 R. C. Lochan,  A. Luenser,  P. Manohar,  S. F. Manzer,  S.-P. Mao,  Y. Mao,  
 N. Mardirossian,  A. V. Marenich,  L. A. Martinez-Martinez,  S. A. Maurer,  
 N. J. Mayhall,  J.-M. Mewes,  A. F. Morrison,  K. Nanda,  T. S. Nguyen-Beck,  
 C. M. Oana,  R. Olivares-Amaya,  D. P. O'Neill,  J. A. Parkhill,  
 T. M. Perrine,  R. Peverati,  P. A. Pieniazek,  F. Plasser,  A. Prociuk,  
 D. R. Rehn,  E. Rosta,  N. J. Russ,  N. Sergueev,  S. M. Sharada,  
 S. Sharma,  D. W. Small,  A. Sodt,  T. Stauch,  T. Stein,  D. Stuck,  
 Y.-C. Su,  A. J. W. Thom,  T. Tsuchimochi,  L. Vogt,  O. Vydrov,  T. Wang,  
 M. A. Watson,  J. Wenzel,  A. White,  C. F. Williams,  V. Vanovschi,  
 K. Yao,  S. Yeganeh,  S. R. Yost,  Z.-Q. You,  I. Y. Zhang,  X. Zhang,  
 Y. Zhao,  B. R. Brooks,  G. K. L. Chan,  D. M. Chipman,  C. J. Cramer,  
 W. A. Goddard III,  M. S. Gordon,  W. J. Hehre,  A. Klamt,  
 H. F. Schaefer III,  M. W. Schmidt,  C. D. Sherrill,  D. G. Truhlar,  
 A. Warshel,  X. Xu,  A. Aspuru-Guzik,  R. Baer,  A. T. Bell,  N. A. Besley,  
 J.-D. Chai,  A. Dreuw,  B. D. Dunietz,  T. R. Furlani,  S. R. Gwaltney,  
 C.-P. Hsu,  Y. Jung,  J. Kong,  D. S. Lambrecht,  W. Liang,  C. Ochsenfeld,  
 V. A. Rassolov,  L. V. Slipchenko,  J. E. Subotnik,  T. Van Voorhis,  
 J. M. Herbert,  A. I. Krylov,  P. M. W. Gill,  M. Head-Gordon

 Contributors to earlier versions of Q-Chem not listed above: 
 R. D. Adamson,  J. Baker,  E. F. C. Byrd,  A. K. Chakraborty,  C.-L. Cheng,  
 H. Dachsel,  R. J. Doerksen,  G. Hawkins,  A. Heyden,  S. Hirata,  
 G. Kedziora,  F. J. Keil,  C. Kelley,  P. P. Korambath,  W. Kurlancheek,  
 A. M. Lee,  M. S. Lee,  D. Liotard,  I. Lotan,  P. E. Maslen,  N. Nair,  
 D. Neuhauser,  R. Olson,  B. Peters,  J. Ritchie,  N. E. Schultz,  
 N. Shenvi,  A. C. Simmonett,  K. S. Thanthiriwatte,  Q. Wu,  W. Zhang

 Please cite Q-Chem as follows:
 Y. Shao et al., Mol. Phys. 113, 184-215 (2015)
 DOI: 10.1080/00268976.2014.952696

 Q-Chem 4.4.2 for Intel X86 EM64T Linux

 Parts of Q-Chem use Armadillo 5.200.1 (Boston Tea Smuggler).
 http://arma.sourceforge.net/

 Q-Chem begins on Wed May 31 02:25:50 2017  

Host: nid00776
0

     Scratch files written to /global/cscratch1/sd/bwood/qchem/nx/qchem26958.0//
 Parallel job on  16  processors

Checking the input file for inconsistencies... 	...done.

--------------------------------------------------------------
User input:
--------------------------------------------------------------
$molecule
 1  2
 S           0.00238887        0.06077275        0.00183269
 C           1.73707619        0.03315849        0.00323229
 H           2.27612737        0.05289032        0.94042557
 C           2.24169204       -0.01546201       -1.26965798
 H           3.30285780       -0.04005365       -1.48972496
 C           1.22479222       -0.01612968       -2.26811464
 H           1.42674790       -0.02650987       -3.33334501
 C          -0.05393771        0.02880388       -1.75170966
 C          -1.32450815        0.04889988       -2.45636342
 C          -2.51912638        0.62538391       -2.07611104
 H          -2.63608074        1.17689977       -1.14984434
 C          -3.56320830        0.45256729       -3.03052819
 H          -4.56608740        0.84441609       -2.90489913
 C          -3.16270237       -0.25251408       -4.13487843
 H          -3.74120818       -0.51980274       -5.00858837
 S          -1.50014430       -0.73382863       -4.01752319
$end


$rem
         jobtype = opt
        exchange = b3lyp
           basis = 6-31++g**
  max_scf_cycles = 150
      mem_static = 775
       mem_total = 7750
      sym_ignore = true
        symmetry = false
          thresh = 12
$end


$opt
CONSTRAINT
tors 6 8 9 10 -150.0
ENDCONSTRAINT
$end

--------------------------------------------------------------
 ----------------------------------------------------------------
             Standard Nuclear Orientation (Angstroms)
    I     Atom           X                Y                Z
 ----------------------------------------------------------------
    1      S       0.0023888700     0.0607727500     0.0018326900
    2      C       1.7370761900     0.0331584900     0.0032322900
    3      H       2.2761273700     0.0528903200     0.9404255700
    4      C       2.2416920400    -0.0154620100    -1.2696579800
    5      H       3.3028578000    -0.0400536500    -1.4897249600
    6      C       1.2247922200    -0.0161296800    -2.2681146400
    7      H       1.4267479000    -0.0265098700    -3.3333450100
    8      C      -0.0539377100     0.0288038800    -1.7517096600
    9      C      -1.3245081500     0.0488998800    -2.4563634200
   10      C      -2.5191263800     0.6253839100    -2.0761110400
   11      H      -2.6360807400     1.1768997700    -1.1498443400
   12      C      -3.5632083000     0.4525672900    -3.0305281900
   13      H      -4.5660874000     0.8444160900    -2.9048991300
   14      C      -3.1627023700    -0.2525140800    -4.1348784300
   15      H      -3.7412081800    -0.5198027400    -5.0085883700
   16      S      -1.5001443000    -0.7338286300    -4.0175231900
 ----------------------------------------------------------------
 Nuclear Repulsion Energy =   628.8598045668 hartrees
 There are       43 alpha and       42 beta electrons
 Requested basis set is 6-31++G(d,p)
 There are 76 shells and 234 basis functions

 Total QAlloc Memory Limit   7750 MB
 Mega-Array Size       758 MB
 MEM_STATIC part       775 MB
 A cutoff of  1.0D-12 yielded   2529 shell pairs
 There are     24905 function pairs

 Q-Chem warning in module /project/projectdirs/jcesr/qchem/qc44/cnl_qc441/compile/cori/qc_src/libqints/qchem/aobasis.C, line 68:

 Using reconstructed effective core potential

 
 -------------------------------------------------------
 OpenMP Integral Computing Module                       
 Release: version 1.0, May 2013, Q-Chem Inc. Pittsburgh 
 -------------------------------------------------------
 Integral Job Info:
 Integral job number is                      11
 Integral operator is                         1
 short-range coefficients                     0
 long-range coefficients              100000000
 Omega coefficients                           0
 if combine SR and LR in K                    0
 Integral screening is                        0
 Integral computing path is                   2
 max size of driver memory is            800000
 size of driver memory is                593474
 size of scratch memory is             15166112
 max col of scratch BK array               1296
 max len of scratch array in speh3          155
 max len of scratch index in speh4           18
 max int batch size is                      520
 min int batch size is                       52
 fixed nKL is                                52
 max L of basis functions is                  2
 order of int derivative is                   0
 number of shells is                         76
 number of basis is                         234
 number of cartesian basis is               234
 number of contracted shell pairs          2529
 number of primitive shell pairs           8256
 maxK2 (contraction) of shell pair           36
 max number of K2 of shell pair               1
 max number of CS2 of shell pair            266
 max number of PS2 of shell pair           1524
 mem total for path MDJ                   51992
 -------------------------------------------------------
 Smallest overlap matrix eigenvalue = 1.01E-06

 Scale SEOQF with 1.000000e-01/1.000000e-01/1.000000e-01

 Standard Electronic Orientation quadrupole field applied
 Nucleus-field energy     =    -0.0000000496 hartrees
 Guess from superposition of atomic densities
 Warning:  Energy on first SCF cycle will be non-variational
 An unrestricted hybrid HF-DFT SCF calculation will be
 performed using Pulay DIIS extrapolation
 Exchange:     0.2000 Hartree-Fock + 0.0800 Slater + 0.7200 B88
 Correlation:  0.1900 VWN1RPA + 0.8100 LYP
 Using SG-1 standard quadrature grid
 SCF converges when DIIS error is below 1.0E-08
 Inaccurate integrated density:
   Number of electrons =    85
   Numerical integral  =    86.000190244419
   Relative error      =     1.1766944052 %
 ---------------------------------------
  Cycle       Energy         DIIS Error
 ---------------------------------------
    1   -1107.1563294912      4.39E-02
    2   -1104.4425818882      3.86E-03
    3   -1104.2418663590      6.19E-03
    4   -1104.5532495292      9.99E-04
    5   -1104.5581901537      6.27E-04
    6   -1104.5615536607      1.63E-04
    7   -1104.5618303384      5.99E-05
    8   -1104.5618979280      2.19E-05
    9   -1104.5619285952      1.87E-05
   10   -1104.5619557111      7.58E-06
   11   -1104.5619666815      3.44E-06
   12   -1104.5619682622      1.91E-06
   13   -1104.5619684552      8.92E-07
   14   -1104.5619685265      1.92E-07
   15   -1104.5619685310      7.67E-08
   16   -1104.5619685306      3.29E-08
   17   -1104.5619685313      1.05E-08
   18   -1104.5619685303      4.98E-09 Convergence criterion met
 ---------------------------------------
 <S^2> = 0.7636
 SCF time:  CPU 12.04 s  wall 11.63 s
 SCF   energy in the final basis set = -1104.5619685303
 Total energy in the final basis set = -1104.5619685303
 
 --------------------------------------------------------------
 
                    Orbital Energies (a.u.)
 --------------------------------------------------------------
 
 Alpha MOs
 -- Occupied --
-89.094 -89.094 -10.434 -10.434 -10.418 -10.418 -10.393 -10.393
-10.381 -10.381  -8.153  -8.153  -6.118  -6.118  -6.114  -6.114
 -6.110  -6.110  -1.088  -1.064  -0.960  -0.928  -0.915  -0.893
 -0.786  -0.757  -0.730  -0.711  -0.700  -0.654  -0.598  -0.595
 -0.593  -0.582  -0.581  -0.557  -0.554  -0.527  -0.517  -0.468
 -0.436  -0.433  -0.408
 -- Virtual --
 -0.238  -0.183  -0.157  -0.154  -0.132  -0.124  -0.119  -0.106
 -0.099  -0.094  -0.093  -0.090  -0.080  -0.074  -0.073  -0.057
 -0.050  -0.039  -0.034  -0.030  -0.025  -0.015  -0.014  -0.007
 -0.000   0.000   0.009   0.009   0.013   0.016   0.023   0.027
  0.027   0.032   0.036   0.040   0.043   0.050   0.052   0.054
  0.060   0.067   0.072   0.081   0.087   0.092   0.099   0.108
  0.114   0.118   0.123   0.131   0.131   0.145   0.145   0.155
  0.170   0.177   0.186   0.193   0.213   0.217   0.239   0.244
  0.277   0.298   0.309   0.361   0.366   0.381   0.387   0.411
  0.424   0.449   0.453   0.456   0.478   0.483   0.489   0.509
  0.522   0.535   0.554   0.562   0.565   0.575   0.583   0.606
  0.624   0.646   0.647   0.663   0.673   0.698   0.752   0.775
  0.780   0.788   0.791   0.800   0.812   0.836   0.843   0.848
  0.857   0.862   0.880   0.907   0.922   0.930   0.952   0.965
  0.981   1.007   1.019   1.051   1.075   1.103   1.145   1.166
  1.170   1.171   1.177   1.199   1.285   1.289   1.339   1.341
  1.392   1.498   1.507   1.552   1.619   1.682   1.684   1.715
  1.743   1.744   1.766   1.792   1.831   1.868   1.895   1.910
  1.931   1.974   1.994   2.002   2.054   2.058   2.075   2.152
  2.196   2.201   2.247   2.268   2.274   2.298   2.322   2.331
  2.356   2.359   2.402   2.415   2.427   2.486   2.520   2.543
  2.568   2.677   2.684   2.739   2.752   2.972   3.025   3.107
  3.111   3.231   3.256   3.549   3.570   3.800   3.803   4.055
  4.125   4.129   4.151   4.227   4.350   4.476   4.531
 
 Beta MOs
 -- Occupied --
-89.094 -89.094 -10.432 -10.432 -10.414 -10.414 -10.391 -10.391
-10.381 -10.381  -8.154  -8.154  -6.118  -6.118  -6.114  -6.114
 -6.111  -6.111  -1.082  -1.058  -0.952  -0.925  -0.913  -0.883
 -0.782  -0.753  -0.725  -0.708  -0.699  -0.651  -0.595  -0.593
 -0.581  -0.579  -0.577  -0.550  -0.541  -0.526  -0.516  -0.440
 -0.432  -0.429
 -- Virtual --
 -0.343  -0.219  -0.167  -0.153  -0.150  -0.125  -0.118  -0.115
 -0.101  -0.096  -0.092  -0.092  -0.089  -0.080  -0.074  -0.071
 -0.056  -0.048  -0.038  -0.033  -0.029  -0.023  -0.014  -0.013
 -0.007   0.001   0.001   0.010   0.011   0.014   0.017   0.023
  0.028   0.028   0.034   0.036   0.041   0.044   0.052   0.054
  0.054   0.062   0.068   0.074   0.083   0.088   0.093   0.099
  0.108   0.115   0.119   0.123   0.132   0.132   0.146   0.147
  0.157   0.171   0.179   0.188   0.195   0.215   0.218   0.241
  0.245   0.279   0.299   0.310   0.362   0.366   0.382   0.388
  0.413   0.426   0.451   0.455   0.458   0.488   0.490   0.493
  0.517   0.523   0.537   0.558   0.564   0.566   0.581   0.592
  0.608   0.626   0.650   0.650   0.668   0.678   0.700   0.754
  0.780   0.782   0.790   0.794   0.803   0.814   0.838   0.844
  0.849   0.859   0.864   0.883   0.908   0.923   0.931   0.954
  0.969   0.985   1.011   1.024   1.056   1.079   1.105   1.148
  1.171   1.174   1.178   1.187   1.205   1.290   1.293   1.345
  1.348   1.397   1.510   1.521   1.560   1.625   1.688   1.689
  1.717   1.747   1.747   1.768   1.798   1.836   1.872   1.899
  1.918   1.937   1.985   2.004   2.010   2.059   2.068   2.082
  2.158   2.200   2.204   2.249   2.276   2.282   2.299   2.326
  2.336   2.359   2.363   2.407   2.418   2.431   2.488   2.524
  2.548   2.572   2.680   2.688   2.741   2.754   2.973   3.026
  3.107   3.111   3.232   3.258   3.551   3.571   3.800   3.804
  4.061   4.129   4.135   4.155   4.234   4.357   4.480   4.535
 --------------------------------------------------------------
 
          Ground-State Mulliken Net Atomic Charges

     Atom                 Charge (a.u.)    Spin (a.u.)
  --------------------------------------------------------
      1 S                     0.037894      -0.046796
      2 C                     0.087676       0.304019
      3 H                     0.247812      -0.015421
      4 C                    -0.386301      -0.019519
      5 H                     0.170978      -0.000225
      6 C                     0.379236       0.147196
      7 H                     0.169530      -0.008789
      8 C                    -0.207169       0.139433
      9 C                    -0.206531       0.139795
     10 C                     0.379079       0.147157
     11 H                     0.169702      -0.008797
     12 C                    -0.386786      -0.019546
     13 H                     0.170880      -0.000226
     14 C                     0.087604       0.303887
     15 H                     0.247820      -0.015419
     16 S                     0.038575      -0.046750
  --------------------------------------------------------
  Sum of atomic charges =     1.000000
  Sum of spin   charges =     1.000000

 -----------------------------------------------------------------
                    Cartesian Multipole Moments
 -----------------------------------------------------------------
    Charge (ESU x 10^10)
                 4.8032
    Dipole Moment (Debye)
         X      -3.2875      Y       0.3388      Z     -10.1450
       Tot      10.6698
    Quadrupole Moments (Debye-Ang)
        XX     -30.3155     XY      -2.2169     YY     -71.0385
        XZ      23.7245     YZ       2.6834     ZZ     -27.2252
    Octopole Moments (Debye-Ang^2)
       XXX      71.5075    XXY      12.7421    XYY      44.1041
       YYY       8.5978    XXZ      35.3941    XYZ      -3.2721
       YYZ     146.6064    XZZ     -48.5690    YZZ     -16.3388
       ZZZ     263.4605
    Hexadecapole Moments (Debye-Ang^3)
      XXXX   -1165.2999   XXXY     -42.8442   XXYY    -305.7402
      XYYY       4.8206   YYYY    -156.3853   XXXZ    -322.5101
      XXYZ     -24.1877   XYYZ    -222.2667   YYYZ     -79.2368
      XXZZ    -313.0116   XYZZ      46.8848   YYZZ    -507.6277
      XZZZ    -206.0604   YZZZ      28.3683   ZZZZ   -2099.5393
 -----------------------------------------------------------------
 Calculating analytic gradient of the SCF energy
 Gradient of SCF Energy
            1           2           3           4           5           6
    1   0.0013003   0.0188615  -0.0006231   0.0019473   0.0004169  -0.0350660
    2  -0.0045417  -0.0008990   0.0014142  -0.0005281  -0.0006387   0.0055175
    3  -0.0125970  -0.0090608  -0.0011720   0.0314038   0.0006094   0.0019981
            7           8           9          10          11          12
    1  -0.0012155   0.0376160  -0.0361603   0.0348616   0.0012020  -0.0043748
    2   0.0000937  -0.0014926   0.0102763  -0.0065692  -0.0002679  -0.0146261
    3  -0.0000352  -0.0010475  -0.0011253  -0.0017025   0.0000337  -0.0276117
           13          14          15          16
    1  -0.0006317  -0.0175189   0.0010776  -0.0016928
    2  -0.0006952   0.0090010   0.0015451   0.0024107
    3  -0.0002640   0.0070988   0.0004012   0.0130710
 Max gradient component =       3.762E-02
 RMS gradient           =       1.338E-02
 Gradient time:  CPU 1.93 s  wall 1.92 s
 Geometry Optimization Parameters
   NAtoms,    NIC,     NZ,  NCons,   NDum,   NFix, NCnnct, MaxDiis
       16     111       0       1       0       0       0       0


** CONSTRAINED OPTIMIZATION IN DELOCALIZED INTERNAL COORDINATES **
   Searching for a Minimum

   Optimization Cycle:   1

                       Coordinates (Angstroms)
     ATOM                X               Y               Z
      1  S         0.0023888700    0.0607727500    0.0018326900
      2  C         1.7370761900    0.0331584900    0.0032322900
      3  H         2.2761273700    0.0528903200    0.9404255700
      4  C         2.2416920400   -0.0154620100   -1.2696579800
      5  H         3.3028578000   -0.0400536500   -1.4897249600
      6  C         1.2247922200   -0.0161296800   -2.2681146400
      7  H         1.4267479000   -0.0265098700   -3.3333450100
      8  C        -0.0539377100    0.0288038800   -1.7517096600
      9  C        -1.3245081500    0.0488998800   -2.4563634200
     10  C        -2.5191263800    0.6253839100   -2.0761110400
     11  H        -2.6360807400    1.1768997700   -1.1498443400
     12  C        -3.5632083000    0.4525672900   -3.0305281900
     13  H        -4.5660874000    0.8444160900   -2.9048991300
     14  C        -3.1627023700   -0.2525140800   -4.1348784300
     15  H        -3.7412081800   -0.5198027400   -5.0085883700
     16  S        -1.5001443000   -0.7338286300   -4.0175231900
   Point Group: c1    Number of degrees of freedom:    42


   Energy is  -1104.561968530

              Constraints and their Current Values
                                        Value     Constraint
   Dihedral:        6   8   9  10     -150.000     -150.000

 Attempting to Generate Delocalized Internal Coordinates

 41 Hessian modes will be used to form the next step
  Hessian Eigenvalues:
     0.045000    0.045000    0.045000    0.045000    0.045000    0.045000
     0.045002    0.045002    0.045003    0.045004    0.045011    0.045012
     0.159943    0.159949    0.159991    0.159992    0.160000    0.160000
     0.221282    0.221282    0.237835    0.237839    0.250000    0.250000
     0.294264    0.294663    0.312518    0.312618    0.354736    0.354850
     0.355125    0.355132    0.358226    0.358329    0.378510    0.404854
     0.404909    0.463547    0.463616    0.497922    0.497945

 Minimum Search - Taking Simple RFO Step
 Searching for Lamda that Minimizes Along All modes
 Value Taken    Lamda =  -0.01206160
 Step Taken.  Stepsize is  0.213029

                             Maximum     Tolerance    Cnvgd?
         Gradient           0.031442      0.000300      NO
         Displacement       0.092772      0.001200      NO
         Energy change     *********      0.000001      NO


 New Cartesian Coordinates Obtained by Inverse Iteration

 Displacement from previous Coordinates is:  0.403098
 ----------------------------------------------------------------
             Standard Nuclear Orientation (Angstroms)
    I     Atom           X                Y                Z
 ----------------------------------------------------------------
    1      S      -0.0454580938     0.0888502040     0.0147572380
    2      C       1.6818685638     0.0567180811    -0.0237629776
    3      H       2.2262789141     0.0908612092     0.9120644853
    4      C       2.2124418267    -0.0097893182    -1.3085240629
    5      H       3.2744319135    -0.0263211568    -1.5231731485
    6      C       1.2186476346    -0.0464399909    -2.2911216528
    7      H       1.4225962407    -0.0757600453    -3.3559000980
    8      C      -0.0768780264    -0.0022494843    -1.7466418578
    9      C      -1.3120679256     0.0140084168    -2.4446103417
   10      C      -2.5202634036     0.6093999742    -2.0412462591
   11      H      -2.6446040804     1.1456044481    -1.1065915786
   12      C      -3.5307480656     0.4670354851    -2.9967398455
   13      H      -4.5324928879     0.8631882136    -2.8796266474
   14      C      -3.1012664615    -0.2362181650    -4.1181670666
   15      H      -3.6806389203    -0.4895414844    -4.9977158919
   16      S      -1.4471683682    -0.7298546672    -4.0387981048
 ----------------------------------------------------------------
 Nuclear Repulsion Energy =   630.3110133660 hartrees
 There are       43 alpha and       42 beta electrons
 Applying Cartesian multipole field
    Component          Value
    ---------          -----
     (2,0,0)        1.00000E-11
     (0,2,0)        2.00000E-11
     (0,0,2)       -3.00000E-11
 Nucleus-field energy     =    -0.0000000500 hartrees
 Requested basis set is 6-31++G(d,p)
 There are 76 shells and 234 basis functions
 A cutoff of  1.0D-12 yielded   2540 shell pairs
 There are     25109 function pairs

 Q-Chem warning in module /project/projectdirs/jcesr/qchem/qc44/cnl_qc441/compile/cori/qc_src/libqints/qchem/aobasis.C, line 68:

 Using reconstructed effective core potential

 Smallest overlap matrix eigenvalue = 7.67E-07
 Linear dependence detected in AO basis
 Number of orthogonalized atomic orbitals = 233
 Maximum deviation from orthogonality = 3.075E-11
 No. of orbitals has changed due to linear dependencies.  Generating new SCF guess.
 Guess from superposition of atomic densities
 Warning:  Energy on first SCF cycle will be non-variational
 An unrestricted hybrid HF-DFT SCF calculation will be
 performed using Pulay DIIS extrapolation
 Exchange:     0.2000 Hartree-Fock + 0.0800 Slater + 0.7200 B88
 Correlation:  0.1900 VWN1RPA + 0.8100 LYP
 Using SG-1 standard quadrature grid
 SCF converges when DIIS error is below 1.0E-08
 Geometry optimization detected.  Setting ReadMinima to 0
 Setting SaveMinima to 0
 Inaccurate integrated density:
   Number of electrons =    85
   Numerical integral  =    86.000288814605
   Relative error      =     1.1768103701 %
 ---------------------------------------
  Cycle       Energy         DIIS Error
 ---------------------------------------
    1   -1107.1374543712      4.39E-02
    2   -1104.4453393924      3.91E-03
    3   -1104.2456237292      6.23E-03
    4   -1104.5614173355      8.65E-04
    5   -1104.5642903090      6.31E-04
    6   -1104.5675633235      1.56E-04
    7   -1104.5678059815      5.58E-05
    8   -1104.5678609071      1.42E-05
    9   -1104.5678869335      1.09E-05
   10   -1104.5679005394      6.23E-06
   11   -1104.5679066855      2.91E-06
   12   -1104.5679079403      1.48E-06
   13   -1104.5679080357      6.94E-07
   14   -1104.5679080704      1.73E-07
   15   -1104.5679080735      7.58E-08
   16   -1104.5679080736      3.72E-08
   17   -1104.5679080733      1.05E-08
   18   -1104.5679080739      5.70E-09 Convergence criterion met
 ---------------------------------------
 <S^2> = 0.7665
 SCF time:  CPU 12.22 s  wall 11.57 s
 SCF   energy in the final basis set = -1104.5679080739
 Total energy in the final basis set = -1104.5679080739
 
 --------------------------------------------------------------
 
                    Orbital Energies (a.u.)
 --------------------------------------------------------------
 
 Alpha MOs
 -- Occupied --
-89.098 -89.098 -10.431 -10.430 -10.418 -10.418 -10.392 -10.392
-10.380 -10.380  -8.157  -8.157  -6.121  -6.121  -6.117  -6.117
 -6.114  -6.114  -1.086  -1.060  -0.957  -0.933  -0.921  -0.881
 -0.786  -0.757  -0.726  -0.713  -0.702  -0.647  -0.594  -0.593
 -0.587  -0.582  -0.580  -0.555  -0.551  -0.536  -0.524  -0.465
 -0.441  -0.437  -0.396
 -- Virtual --
 -0.243  -0.184  -0.162  -0.159  -0.130  -0.124  -0.115  -0.106
 -0.099  -0.095  -0.093  -0.090  -0.080  -0.074  -0.071  -0.056
 -0.049  -0.037  -0.032  -0.030  -0.023  -0.014  -0.013  -0.008
 -0.000  -0.000   0.009   0.010   0.014   0.018   0.022   0.026
  0.027   0.033   0.036   0.041   0.043   0.052   0.052   0.052
  0.067   0.075   0.077   0.082   0.092   0.096   0.099   0.106
  0.108   0.120   0.122   0.129   0.136   0.143   0.147   0.154
  0.169   0.180   0.200   0.208   0.215   0.235   0.236   0.247
  0.300   0.309   0.364   0.365   0.384   0.387   0.406   0.418
  0.452   0.454   0.455   0.479   0.481   0.487   0.509   0.512
  0.540   0.552   0.562   0.570   0.579   0.584   0.606   0.616
  0.650   0.651   0.659   0.677   0.697   0.748   0.769   0.781
  0.785   0.786   0.803   0.815   0.817   0.841   0.842   0.843
  0.856   0.878   0.901   0.916   0.924   0.956   0.966   0.978
  1.002   1.007   1.038   1.077   1.099   1.141   1.171   1.171
  1.173   1.178   1.199   1.284   1.285   1.333   1.343   1.393
  1.498   1.507   1.549   1.635   1.662   1.694   1.725   1.731
  1.750   1.784   1.802   1.844   1.873   1.892   1.901   1.939
  1.964   2.001   2.010   2.054   2.056   2.077   2.145   2.198
  2.203   2.257   2.265   2.269   2.297   2.325   2.326   2.350
  2.352   2.392   2.404   2.422   2.483   2.521   2.545   2.570
  2.678   2.680   2.741   2.752   2.970   3.024   3.104   3.108
  3.226   3.251   3.552   3.571   3.798   3.800   4.057   4.091
  4.132   4.143   4.231   4.342   4.485   4.537
 
 Beta MOs
 -- Occupied --
-89.098 -89.098 -10.429 -10.428 -10.413 -10.413 -10.390 -10.390
-10.380 -10.380  -8.157  -8.157  -6.121  -6.121  -6.117  -6.117
 -6.114  -6.114  -1.080  -1.054  -0.949  -0.931  -0.918  -0.870
 -0.781  -0.753  -0.721  -0.710  -0.700  -0.644  -0.592  -0.585
 -0.581  -0.578  -0.578  -0.547  -0.539  -0.535  -0.523  -0.438
 -0.437  -0.433
 -- Virtual --
 -0.331  -0.223  -0.170  -0.158  -0.155  -0.125  -0.117  -0.111
 -0.100  -0.097  -0.094  -0.091  -0.089  -0.079  -0.073  -0.069
 -0.056  -0.047  -0.036  -0.031  -0.029  -0.022  -0.014  -0.012
 -0.007   0.000   0.001   0.010   0.012   0.015   0.019   0.023
  0.028   0.028   0.035   0.037   0.042   0.044   0.052   0.053
  0.053   0.068   0.076   0.079   0.084   0.093   0.098   0.099
  0.108   0.108   0.120   0.123   0.130   0.137   0.144   0.149
  0.155   0.170   0.183   0.202   0.210   0.217   0.237   0.238
  0.250   0.301   0.311   0.364   0.366   0.385   0.388   0.408
  0.421   0.453   0.456   0.459   0.485   0.491   0.493   0.514
  0.517   0.542   0.555   0.564   0.573   0.585   0.593   0.608
  0.619   0.651   0.656   0.665   0.681   0.698   0.750   0.774
  0.783   0.786   0.791   0.805   0.816   0.819   0.842   0.843
  0.845   0.858   0.881   0.903   0.917   0.925   0.957   0.971
  0.982   1.007   1.012   1.043   1.080   1.101   1.143   1.174
  1.175   1.181   1.187   1.205   1.289   1.290   1.341   1.346
  1.400   1.510   1.521   1.557   1.641   1.666   1.701   1.726
  1.733   1.755   1.786   1.807   1.849   1.876   1.897   1.909
  1.944   1.974   2.012   2.018   2.061   2.066   2.084   2.151
  2.201   2.206   2.258   2.272   2.277   2.299   2.328   2.331
  2.355   2.355   2.397   2.409   2.426   2.486   2.525   2.549
  2.574   2.681   2.684   2.743   2.754   2.971   3.026   3.105
  3.109   3.228   3.253   3.553   3.573   3.798   3.801   4.063
  4.098   4.135   4.146   4.238   4.349   4.489   4.541
 --------------------------------------------------------------
 
          Ground-State Mulliken Net Atomic Charges

     Atom                 Charge (a.u.)    Spin (a.u.)
  --------------------------------------------------------
      1 S                     0.044309      -0.046580
      2 C                     0.104367       0.323659
      3 H                     0.249401      -0.016369
      4 C                    -0.357581      -0.030480
      5 H                     0.172887       0.000563
      6 C                     0.413300       0.155931
      7 H                     0.166957      -0.009077
      8 C                    -0.293872       0.122259
      9 C                    -0.293574       0.122552
     10 C                     0.413236       0.155863
     11 H                     0.167200      -0.009085
     12 C                    -0.357991      -0.030511
     13 H                     0.172815       0.000564
     14 C                     0.104395       0.323670
     15 H                     0.249389      -0.016370
     16 S                     0.044763      -0.046589
  --------------------------------------------------------
  Sum of atomic charges =     1.000000
  Sum of spin   charges =     1.000000

 -----------------------------------------------------------------
                    Cartesian Multipole Moments
 -----------------------------------------------------------------
    Charge (ESU x 10^10)
                 4.8032
    Dipole Moment (Debye)
         X      -3.2874      Y       0.3407      Z     -10.1459
       Tot      10.6706
    Quadrupole Moments (Debye-Ang)
        XX     -31.7576     XY      -2.3740     YY     -71.0170
        XZ      22.2810     YZ       3.0173     ZZ     -26.8855
    Octopole Moments (Debye-Ang^2)
       XXX      74.9858    XXY      13.9643    XYY      44.1571
       YYY       8.0530    XXZ      40.4566    XYZ      -2.2780
       YYZ     146.6379    XZZ     -43.1589    YZZ     -17.3174
       ZZZ     261.0013
    Hexadecapole Moments (Debye-Ang^3)
      XXXX   -1149.5229   XXXY     -45.0183   XXYY    -298.3443
      XYYY       6.6328   YYYY    -155.3462   XXXZ    -332.7397
      XXYZ     -29.3295   XYYZ    -216.5702   YYYZ     -81.4875
      XXZZ    -333.2687   XYZZ      42.8701   YYZZ    -507.4062
      XZZZ    -213.6095   YZZZ      29.0711   ZZZZ   -2087.4085
 -----------------------------------------------------------------
 Calculating analytic gradient of the SCF energy
 Gradient of SCF Energy
            1           2           3           4           5           6
    1  -0.0090499   0.0031875  -0.0010539   0.0011133  -0.0001091  -0.0069325
    2  -0.0019669  -0.0015043   0.0009972   0.0000125  -0.0005313   0.0046326
    3   0.0029918  -0.0063154   0.0001641   0.0046676  -0.0015840  -0.0030009
            7           8           9          10          11          12
    1   0.0012760   0.0143315  -0.0146302   0.0081882  -0.0011295  -0.0014044
    2   0.0001864  -0.0025208   0.0010208   0.0032412   0.0006354  -0.0018332
    3  -0.0002208   0.0022719  -0.0018884   0.0009877  -0.0000008  -0.0041876
           13          14          15          16
    1   0.0000707  -0.0030342   0.0012792   0.0078973
    2   0.0002726   0.0026178   0.0004357  -0.0056958
    3   0.0016466   0.0060568  -0.0005338  -0.0010548
 Max gradient component =       1.463E-02
 RMS gradient           =       4.443E-03
 Gradient time:  CPU 1.92 s  wall 1.90 s
 Geometry Optimization Parameters
   NAtoms,    NIC,     NZ,  NCons,   NDum,   NFix, NCnnct, MaxDiis
       16     111       0       1       0       0       0       0

 Cartesian Hessian Update
 Hessian Updated using BFGS Update


** CONSTRAINED OPTIMIZATION IN DELOCALIZED INTERNAL COORDINATES **
   Searching for a Minimum

   Optimization Cycle:   2

                       Coordinates (Angstroms)
     ATOM                X               Y               Z
      1  S        -0.0454580938    0.0888502040    0.0147572380
      2  C         1.6818685638    0.0567180811   -0.0237629776
      3  H         2.2262789141    0.0908612092    0.9120644853
      4  C         2.2124418267   -0.0097893182   -1.3085240629
      5  H         3.2744319135   -0.0263211568   -1.5231731485
      6  C         1.2186476346   -0.0464399909   -2.2911216528
      7  H         1.4225962407   -0.0757600453   -3.3559000980
      8  C        -0.0768780264   -0.0022494843   -1.7466418578
      9  C        -1.3120679256    0.0140084168   -2.4446103417
     10  C        -2.5202634036    0.6093999742   -2.0412462591
     11  H        -2.6446040804    1.1456044481   -1.1065915786
     12  C        -3.5307480656    0.4670354851   -2.9967398455
     13  H        -4.5324928879    0.8631882136   -2.8796266474
     14  C        -3.1012664615   -0.2362181650   -4.1181670666
     15  H        -3.6806389203   -0.4895414844   -4.9977158919
     16  S        -1.4471683682   -0.7298546672   -4.0387981048
   Point Group: c1    Number of degrees of freedom:    42


   Energy is  -1104.567908074

              Constraints and their Current Values
                                        Value     Constraint
   Dihedral:        6   8   9  10     -150.000     -150.000
 Hessian Updated using BFGS Update

 41 Hessian modes will be used to form the next step
  Hessian Eigenvalues:
     0.041531    0.045000    0.045000    0.045000    0.045000    0.045000
     0.045002    0.045002    0.045004    0.045011    0.045012    0.045110
     0.159652    0.159947    0.159986    0.159992    0.160000    0.160689
     0.221282    0.221586    0.237837    0.246969    0.250000    0.278304
     0.294223    0.294526    0.305375    0.312568    0.354668    0.354817
     0.355107    0.355129    0.358181    0.358304    0.381567    0.404881
     0.428586    0.445466    0.463582    0.489038    0.497933

 Minimum Search - Taking Simple RFO Step
 Searching for Lamda that Minimizes Along All modes
 Value Taken    Lamda =  -0.00186428
 Step Taken.  Stepsize is  0.139555

                             Maximum     Tolerance    Cnvgd?
         Gradient           0.010309      0.000300      NO
         Displacement       0.071093      0.001200      NO
         Energy change     -0.005940      0.000001      NO


 New Cartesian Coordinates Obtained by Inverse Iteration

 Displacement from previous Coordinates is:  0.274519
 ----------------------------------------------------------------
             Standard Nuclear Orientation (Angstroms)
    I     Atom           X                Y                Z
 ----------------------------------------------------------------
    1      S      -0.0247491987     0.1138056749     0.0201486852
    2      C       1.6950232935     0.0870239358    -0.0168732930
    3      H       2.2494418809     0.1393577089     0.9131351294
    4      C       2.2166812696    -0.0055607414    -1.3088111787
    5      H       3.2789189346    -0.0148548388    -1.5207416465
    6      C       1.2207629305    -0.0783130381    -2.2819933402
    7      H       1.4170169857    -0.1295440887    -3.3467535963
    8      C      -0.0856625833    -0.0340953295    -1.7394843404
    9      C      -1.3134536622    -0.0184122805    -2.4350701955
   10      C      -2.5322880759     0.5792421769    -2.0344407373
   11      H      -2.6558754488     1.0950082098    -1.0889460012
   12      C      -3.5335379826     0.4718553666    -2.9988592995
   13      H      -4.5336476000     0.8727736009    -2.8876174022
   14      C      -3.1054019256    -0.2103141222    -4.1395668717
   15      H      -3.6885002129    -0.4428990508    -5.0233345875
   16      S      -1.4600497447    -0.7055814639    -4.0565891344
 ----------------------------------------------------------------
 Nuclear Repulsion Energy =   629.4902973788 hartrees
 There are       43 alpha and       42 beta electrons
 Applying Cartesian multipole field
    Component          Value
    ---------          -----
     (2,0,0)        1.00000E-11
     (0,2,0)        2.00000E-11
     (0,0,2)       -3.00000E-11
 Nucleus-field energy     =    -0.0000000503 hartrees
 Requested basis set is 6-31++G(d,p)
 There are 76 shells and 234 basis functions
 A cutoff of  1.0D-12 yielded   2531 shell pairs
 There are     24917 function pairs

 Q-Chem warning in module /project/projectdirs/jcesr/qchem/qc44/cnl_qc441/compile/cori/qc_src/libqints/qchem/aobasis.C, line 68:

 Using reconstructed effective core potential

 Smallest overlap matrix eigenvalue = 7.66E-07
 Linear dependence detected in AO basis
 Number of orthogonalized atomic orbitals = 233
 Maximum deviation from orthogonality = 2.441E-11
 Guess MOs from SCF MO coefficient file
 Reading MOs from coefficient file
 Size of previous SCF MO coefficient file: 109510 (expected); 109980 (actual). 

 Q-Chem warning in module /project/projectdirs/jcesr/qchem/qc44/cnl_qc441/compile/cori/qc_src/gesman/GuessMan.C, line 722:

 Inconsistent size for SCF MO coefficient file.  Please check basis and PURECART setting.

 Reading MOs from coefficient file
 An unrestricted hybrid HF-DFT SCF calculation will be
 performed using Pulay DIIS extrapolation
 Exchange:     0.2000 Hartree-Fock + 0.0800 Slater + 0.7200 B88
 Correlation:  0.1900 VWN1RPA + 0.8100 LYP
 Using SG-1 standard quadrature grid
 SCF converges when DIIS error is below 1.0E-08
 Geometry optimization detected.  Setting ReadMinima to 0
 Setting SaveMinima to 0
 ---------------------------------------
  Cycle       Energy         DIIS Error
 ---------------------------------------
    1   -1104.5467251860      1.10E-03
    2   -1104.5689909495      1.10E-04
    3   -1104.5690172841      1.15E-04
    4   -1104.5691078634      2.93E-05
    5   -1104.5691147667      7.76E-06
    6   -1104.5691153570      2.24E-06
    7   -1104.5691154026      1.13E-06
    8   -1104.5691154164      4.16E-07
    9   -1104.5691154192      1.68E-07
   10   -1104.5691154210      8.11E-08
   11   -1104.5691154218      4.35E-08
   12   -1104.5691154216      3.07E-08
   13   -1104.5691154230      9.38E-09 Convergence criterion met
 ---------------------------------------
 <S^2> = 0.7669
 SCF time:  CPU 8.76 s  wall 8.79 s
 SCF   energy in the final basis set = -1104.5691154230
 Total energy in the final basis set = -1104.5691154230
 
 --------------------------------------------------------------
 
                    Orbital Energies (a.u.)
 --------------------------------------------------------------
 
 Alpha MOs
 -- Occupied --
-89.098 -89.098 -10.431 -10.431 -10.418 -10.418 -10.392 -10.392
-10.380 -10.380  -8.157  -8.157  -6.121  -6.121  -6.117  -6.117
 -6.114  -6.114  -1.085  -1.060  -0.958  -0.933  -0.921  -0.880
 -0.788  -0.757  -0.725  -0.712  -0.701  -0.649  -0.594  -0.594
 -0.588  -0.584  -0.579  -0.555  -0.552  -0.535  -0.522  -0.467
 -0.441  -0.436  -0.394
 -- Virtual --
 -0.245  -0.183  -0.161  -0.156  -0.130  -0.124  -0.116  -0.108
 -0.099  -0.095  -0.093  -0.090  -0.080  -0.074  -0.071  -0.056
 -0.049  -0.038  -0.032  -0.031  -0.023  -0.014  -0.013  -0.007
 -0.001  -0.000   0.010   0.010   0.014   0.018   0.022   0.026
  0.027   0.033   0.036   0.041   0.044   0.051   0.051   0.052
  0.068   0.074   0.078   0.081   0.092   0.096   0.099   0.105
  0.107   0.121   0.124   0.130   0.135   0.141   0.147   0.153
  0.167   0.180   0.201   0.207   0.215   0.236   0.237   0.246
  0.296   0.309   0.363   0.364   0.381   0.390   0.409   0.420
  0.449   0.458   0.463   0.477   0.482   0.485   0.507   0.508
  0.539   0.551   0.563   0.570   0.580   0.582   0.605   0.615
  0.648   0.651   0.657   0.676   0.695   0.747   0.769   0.780
  0.785   0.790   0.806   0.816   0.818   0.840   0.840   0.847
  0.860   0.875   0.897   0.919   0.928   0.954   0.966   0.974
  0.999   1.008   1.040   1.078   1.095   1.144   1.168   1.169
  1.173   1.175   1.204   1.284   1.286   1.327   1.338   1.403
  1.497   1.510   1.544   1.640   1.656   1.689   1.727   1.730
  1.750   1.782   1.797   1.843   1.866   1.885   1.895   1.943
  1.962   2.000   2.010   2.048   2.051   2.078   2.151   2.196
  2.202   2.251   2.265   2.271   2.297   2.322   2.325   2.349
  2.353   2.392   2.405   2.422   2.486   2.519   2.543   2.567
  2.675   2.678   2.738   2.753   2.970   3.025   3.105   3.109
  3.224   3.247   3.549   3.568   3.797   3.803   4.057   4.091
  4.131   4.141   4.231   4.339   4.483   4.533
 
 Beta MOs
 -- Occupied --
-89.098 -89.098 -10.430 -10.429 -10.414 -10.414 -10.390 -10.390
-10.380 -10.380  -8.157  -8.157  -6.122  -6.122  -6.118  -6.118
 -6.114  -6.114  -1.080  -1.054  -0.951  -0.930  -0.918  -0.870
 -0.783  -0.753  -0.720  -0.710  -0.699  -0.646  -0.593  -0.586
 -0.583  -0.578  -0.577  -0.549  -0.539  -0.533  -0.521  -0.440
 -0.437  -0.433
 -- Virtual --
 -0.329  -0.224  -0.169  -0.156  -0.153  -0.125  -0.117  -0.112
 -0.101  -0.097  -0.094  -0.092  -0.089  -0.079  -0.073  -0.069
 -0.056  -0.047  -0.037  -0.031  -0.031  -0.021  -0.014  -0.012
 -0.007   0.000   0.001   0.010   0.012   0.015   0.020   0.023
  0.027   0.029   0.035   0.037   0.042   0.045   0.052   0.053
  0.054   0.068   0.076   0.080   0.084   0.094   0.098   0.100
  0.107   0.107   0.122   0.124   0.131   0.136   0.142   0.148
  0.154   0.168   0.183   0.202   0.209   0.216   0.237   0.239
  0.249   0.297   0.311   0.364   0.364   0.383   0.391   0.410
  0.423   0.450   0.460   0.467   0.482   0.489   0.495   0.509
  0.516   0.541   0.554   0.564   0.572   0.586   0.591   0.608
  0.617   0.650   0.656   0.663   0.681   0.697   0.748   0.774
  0.781   0.786   0.795   0.808   0.818   0.820   0.840   0.842
  0.848   0.862   0.877   0.899   0.921   0.929   0.956   0.970
  0.978   1.004   1.013   1.045   1.082   1.097   1.147   1.172
  1.174   1.180   1.184   1.209   1.288   1.292   1.334   1.342
  1.409   1.508   1.524   1.554   1.646   1.659   1.696   1.728
  1.732   1.755   1.784   1.802   1.848   1.870   1.890   1.904
  1.948   1.971   2.011   2.017   2.054   2.063   2.084   2.157
  2.200   2.205   2.252   2.272   2.278   2.298   2.326   2.331
  2.353   2.356   2.397   2.410   2.426   2.489   2.524   2.547
  2.571   2.678   2.682   2.740   2.755   2.971   3.026   3.105
  3.110   3.226   3.248   3.551   3.570   3.797   3.803   4.063
  4.098   4.134   4.144   4.238   4.346   4.487   4.536
 --------------------------------------------------------------
 
          Ground-State Mulliken Net Atomic Charges

     Atom                 Charge (a.u.)    Spin (a.u.)
  --------------------------------------------------------
      1 S                     0.043720      -0.046922
      2 C                     0.105426       0.326420
      3 H                     0.250648      -0.016615
      4 C                    -0.366427      -0.033360
      5 H                     0.172690       0.000707
      6 C                     0.405620       0.156475
      7 H                     0.164677      -0.009222
      8 C                    -0.277020       0.122342
      9 C                    -0.275779       0.122904
     10 C                     0.406388       0.156285
     11 H                     0.164932      -0.009239
     12 C                    -0.367379      -0.033365
     13 H                     0.172608       0.000708
     14 C                     0.105723       0.326464
     15 H                     0.250644      -0.016618
     16 S                     0.043528      -0.046963
  --------------------------------------------------------
  Sum of atomic charges =     1.000000
  Sum of spin   charges =     1.000000

 -----------------------------------------------------------------
                    Cartesian Multipole Moments
 -----------------------------------------------------------------
    Charge (ESU x 10^10)
                 4.8032
    Dipole Moment (Debye)
         X      -3.2791      Y       0.3922      Z     -10.1590
       Tot      10.6823
    Quadrupole Moments (Debye-Ang)
        XX     -31.5450     XY      -2.3556     YY     -71.1851
        XZ      22.7263     YZ       2.9455     ZZ     -26.5770
    Octopole Moments (Debye-Ang^2)
       XXX      74.6834    XXY      14.2894    XYY      44.5766
       YYY       7.1436    XXZ      39.6299    XYZ      -1.2903
       YYZ     147.3460    XZZ     -45.6480    YZZ     -16.4134
       ZZZ     258.5337
    Hexadecapole Moments (Debye-Ang^3)
      XXXX   -1155.0790   XXXY     -45.4137   XXYY    -300.4128
      XYYY       7.2051   YYYY    -152.0672   XXXZ    -331.4416
      XXYZ     -31.3337   XYYZ    -219.6044   YYYZ     -81.3827
      XXZZ    -328.4824   XYZZ      38.3508   YYZZ    -511.6199
      XZZZ    -203.7244   YZZZ      23.6950   ZZZZ   -2081.8792
 -----------------------------------------------------------------
 Calculating analytic gradient of the SCF energy
 Gradient of SCF Energy
            1           2           3           4           5           6
    1  -0.0026286   0.0015140  -0.0001349   0.0005547  -0.0001471  -0.0008782
    2  -0.0006555  -0.0012775   0.0004775   0.0003955  -0.0002606   0.0043401
    3   0.0007641  -0.0004956   0.0004024   0.0004915  -0.0004573  -0.0018339
            7           8           9          10          11          12
    1   0.0005601   0.0014220  -0.0024723   0.0022490  -0.0004242  -0.0004376
    2   0.0004031  -0.0037064  -0.0026562   0.0042271   0.0004319   0.0002453
    3   0.0001741  -0.0000009   0.0016377  -0.0003929  -0.0003667  -0.0006416
           13          14          15          16
    1   0.0001003  -0.0018185   0.0002340   0.0023074
    2  -0.0000486  -0.0003844   0.0001550  -0.0016864
    3   0.0005305   0.0009207  -0.0005627  -0.0001695
 Max gradient component =       4.340E-03
 RMS gradient           =       1.486E-03
 Gradient time:  CPU 1.89 s  wall 1.90 s
 Geometry Optimization Parameters
   NAtoms,    NIC,     NZ,  NCons,   NDum,   NFix, NCnnct, MaxDiis
       16     111       0       1       0       0       0       0

 Cartesian Hessian Update
 Hessian Updated using BFGS Update


** CONSTRAINED OPTIMIZATION IN DELOCALIZED INTERNAL COORDINATES **
   Searching for a Minimum

   Optimization Cycle:   3

                       Coordinates (Angstroms)
     ATOM                X               Y               Z
      1  S        -0.0247491987    0.1138056749    0.0201486852
      2  C         1.6950232935    0.0870239358   -0.0168732930
      3  H         2.2494418809    0.1393577089    0.9131351294
      4  C         2.2166812696   -0.0055607414   -1.3088111787
      5  H         3.2789189346   -0.0148548388   -1.5207416465
      6  C         1.2207629305   -0.0783130381   -2.2819933402
      7  H         1.4170169857   -0.1295440887   -3.3467535963
      8  C        -0.0856625833   -0.0340953295   -1.7394843404
      9  C        -1.3134536622   -0.0184122805   -2.4350701955
     10  C        -2.5322880759    0.5792421769   -2.0344407373
     11  H        -2.6558754488    1.0950082098   -1.0889460012
     12  C        -3.5335379826    0.4718553666   -2.9988592995
     13  H        -4.5336476000    0.8727736009   -2.8876174022
     14  C        -3.1054019256   -0.2103141222   -4.1395668717
     15  H        -3.6885002129   -0.4428990508   -5.0233345875
     16  S        -1.4600497447   -0.7055814639   -4.0565891344
   Point Group: c1    Number of degrees of freedom:    42


   Energy is  -1104.569115423

              Constraints and their Current Values
                                        Value     Constraint
   Dihedral:        6   8   9  10     -150.000     -150.000
 Hessian Updated using BFGS Update

 41 Hessian modes will be used to form the next step
  Hessian Eigenvalues:
     0.029256    0.045000    0.045000    0.045000    0.045000    0.045001
     0.045002    0.045003    0.045004    0.045011    0.045013    0.045932
     0.156559    0.159947    0.159992    0.160000    0.160024    0.160060
     0.220648    0.221282    0.237837    0.248789    0.250000    0.278911
     0.294453    0.298182    0.300849    0.312568    0.354772    0.354976
     0.355128    0.355180    0.358271    0.358680    0.379601    0.404881
     0.428957    0.458768    0.463583    0.486760    0.497933

 Minimum Search - Taking Simple RFO Step
 Searching for Lamda that Minimizes Along All modes
 Value Taken    Lamda =  -0.00044360
 Step Taken.  Stepsize is  0.115034

                             Maximum     Tolerance    Cnvgd?
         Gradient           0.002460      0.000300      NO
         Displacement       0.061321      0.001200      NO
         Energy change     -0.001207      0.000001      NO


 New Cartesian Coordinates Obtained by Inverse Iteration

 Displacement from previous Coordinates is:  0.282083
 ----------------------------------------------------------------
             Standard Nuclear Orientation (Angstroms)
    I     Atom           X                Y                Z
 ----------------------------------------------------------------
    1      S      -0.0167942886     0.1315146901     0.0222150080
    2      C       1.6976058879     0.1222645338    -0.0202147748
    3      H       2.2582199443     0.1981277003     0.9039389978
    4      C       2.2151613055    -0.0028162385    -1.3120678878
    5      H       3.2776426685    -0.0052983104    -1.5231921834
    6      C       1.2173788335    -0.1108865851    -2.2763448642
    7      H       1.4052733927    -0.1875210680    -3.3412224496
    8      C      -0.0912640619    -0.0662913072    -1.7326068412
    9      C      -1.3179676027    -0.0501466282    -2.4253853497
   10      C      -2.5390579260     0.5483473091    -2.0237778050
   11      H      -2.6622005387     1.0406231944    -1.0656837890
   12      C      -3.5310529682     0.4752391149    -2.9972518792
   13      H      -4.5294493275     0.8816209636    -2.8900233825
   14      C      -3.0972665272    -0.1786559437    -4.1534114493
   15      H      -3.6788740456    -0.3870215390    -5.0436492898
   16      S      -1.4626758862    -0.6896081662    -4.0671198704
 ----------------------------------------------------------------
 Nuclear Repulsion Energy =   629.6578433682 hartrees
 There are       43 alpha and       42 beta electrons
 Applying Cartesian multipole field
    Component          Value
    ---------          -----
     (2,0,0)        1.00000E-11
     (0,2,0)        2.00000E-11
     (0,0,2)       -3.00000E-11
 Nucleus-field energy     =    -0.0000000505 hartrees
 Requested basis set is 6-31++G(d,p)
 There are 76 shells and 234 basis functions
 A cutoff of  1.0D-12 yielded   2533 shell pairs
 There are     24941 function pairs

 Q-Chem warning in module /project/projectdirs/jcesr/qchem/qc44/cnl_qc441/compile/cori/qc_src/libqints/qchem/aobasis.C, line 68:

 Using reconstructed effective core potential

 Smallest overlap matrix eigenvalue = 8.04E-07
 Linear dependence detected in AO basis
 Number of orthogonalized atomic orbitals = 233
 Maximum deviation from orthogonality = 7.085E-11
 Guess MOs from SCF MO coefficient file
 Reading MOs from coefficient file
 Size of previous SCF MO coefficient file: 109510 (expected); 109980 (actual). 

 Q-Chem warning in module /project/projectdirs/jcesr/qchem/qc44/cnl_qc441/compile/cori/qc_src/gesman/GuessMan.C, line 722:

 Inconsistent size for SCF MO coefficient file.  Please check basis and PURECART setting.

 Reading MOs from coefficient file
 An unrestricted hybrid HF-DFT SCF calculation will be
 performed using Pulay DIIS extrapolation
 Exchange:     0.2000 Hartree-Fock + 0.0800 Slater + 0.7200 B88
 Correlation:  0.1900 VWN1RPA + 0.8100 LYP
 Using SG-1 standard quadrature grid
 SCF converges when DIIS error is below 1.0E-08
 Geometry optimization detected.  Setting ReadMinima to 0
 Setting SaveMinima to 0
 ---------------------------------------
  Cycle       Energy         DIIS Error
 ---------------------------------------
    1   -1104.5615300167      9.17E-04
    2   -1104.5693212563      6.73E-05
    3   -1104.5693312839      8.26E-05
    4   -1104.5693765657      3.67E-05
    5   -1104.5693868704      9.91E-06
    6   -1104.5693874978      4.93E-06
    7   -1104.5693876961      1.13E-06
    8   -1104.5693877084      2.58E-07
    9   -1104.5693877092      1.14E-07
   10   -1104.5693877107      2.72E-08
   11   -1104.5693877111      2.13E-08
   12   -1104.5693877113      8.27E-09 Convergence criterion met
 ---------------------------------------
 <S^2> = 0.7669
 SCF time:  CPU 8.13 s  wall 7.80 s
 SCF   energy in the final basis set = -1104.5693877113
 Total energy in the final basis set = -1104.5693877113
 
 --------------------------------------------------------------
 
                    Orbital Energies (a.u.)
 --------------------------------------------------------------
 
 Alpha MOs
 -- Occupied --
-89.098 -89.098 -10.432 -10.431 -10.418 -10.418 -10.392 -10.392
-10.379 -10.379  -8.157  -8.157  -6.122  -6.121  -6.117  -6.117
 -6.114  -6.114  -1.086  -1.061  -0.958  -0.933  -0.921  -0.880
 -0.788  -0.758  -0.725  -0.712  -0.701  -0.650  -0.595  -0.594
 -0.589  -0.584  -0.579  -0.555  -0.552  -0.534  -0.521  -0.468
 -0.442  -0.436  -0.393
 -- Virtual --
 -0.246  -0.182  -0.160  -0.155  -0.130  -0.124  -0.115  -0.109
 -0.099  -0.095  -0.093  -0.091  -0.080  -0.074  -0.070  -0.056
 -0.049  -0.038  -0.032  -0.031  -0.023  -0.014  -0.012  -0.007
 -0.002   0.000   0.010   0.010   0.014   0.019   0.022   0.025
  0.027   0.034   0.036   0.041   0.044   0.051   0.051   0.052
  0.068   0.074   0.079   0.082   0.093   0.096   0.100   0.105
  0.106   0.122   0.124   0.132   0.134   0.140   0.148   0.152
  0.167   0.181   0.202   0.208   0.214   0.236   0.237   0.245
  0.296   0.309   0.362   0.363   0.381   0.393   0.410   0.422
  0.447   0.460   0.468   0.475   0.483   0.484   0.503   0.508
  0.539   0.550   0.563   0.571   0.581   0.581   0.606   0.614
  0.649   0.650   0.656   0.676   0.696   0.746   0.768   0.779
  0.785   0.793   0.806   0.815   0.820   0.837   0.841   0.849
  0.861   0.873   0.893   0.921   0.930   0.954   0.964   0.973
  0.997   1.009   1.044   1.081   1.093   1.146   1.164   1.167
  1.173   1.173   1.210   1.280   1.291   1.320   1.334   1.414
  1.493   1.511   1.542   1.641   1.656   1.686   1.728   1.731
  1.752   1.782   1.794   1.843   1.863   1.883   1.894   1.947
  1.962   2.001   2.008   2.044   2.052   2.079   2.153   2.196
  2.202   2.248   2.265   2.273   2.298   2.322   2.326   2.350
  2.353   2.393   2.406   2.423   2.487   2.519   2.543   2.566
  2.673   2.678   2.740   2.754   2.971   3.026   3.105   3.109
  3.224   3.245   3.549   3.568   3.797   3.804   4.057   4.091
  4.132   4.142   4.230   4.339   4.484   4.532
 
 Beta MOs
 -- Occupied --
-89.098 -89.098 -10.430 -10.429 -10.414 -10.414 -10.390 -10.390
-10.380 -10.380  -8.157  -8.157  -6.122  -6.122  -6.118  -6.118
 -6.115  -6.115  -1.080  -1.055  -0.951  -0.931  -0.919  -0.870
 -0.784  -0.754  -0.720  -0.709  -0.699  -0.647  -0.593  -0.587
 -0.584  -0.578  -0.576  -0.549  -0.539  -0.533  -0.520  -0.441
 -0.437  -0.433
 -- Virtual --
 -0.328  -0.225  -0.168  -0.156  -0.151  -0.125  -0.117  -0.112
 -0.100  -0.098  -0.094  -0.091  -0.090  -0.079  -0.073  -0.069
 -0.056  -0.047  -0.037  -0.032  -0.030  -0.021  -0.013  -0.011
 -0.007  -0.001   0.001   0.011   0.012   0.015   0.021   0.022
  0.027   0.029   0.035   0.037   0.042   0.044   0.051   0.052
  0.054   0.069   0.076   0.081   0.084   0.095   0.098   0.100
  0.106   0.107   0.123   0.125   0.133   0.135   0.141   0.149
  0.153   0.168   0.183   0.204   0.210   0.216   0.237   0.239
  0.249   0.297   0.311   0.362   0.364   0.382   0.394   0.412
  0.424   0.448   0.462   0.472   0.478   0.488   0.496   0.505
  0.516   0.542   0.554   0.564   0.573   0.587   0.589   0.609
  0.617   0.651   0.655   0.662   0.681   0.698   0.748   0.773
  0.780   0.787   0.798   0.809   0.817   0.821   0.838   0.843
  0.851   0.863   0.875   0.895   0.923   0.931   0.955   0.969
  0.978   1.001   1.014   1.048   1.086   1.095   1.149   1.168
  1.172   1.181   1.182   1.215   1.284   1.298   1.327   1.338
  1.419   1.504   1.526   1.553   1.647   1.660   1.693   1.729
  1.733   1.757   1.784   1.799   1.848   1.868   1.888   1.903
  1.953   1.972   2.013   2.014   2.050   2.065   2.085   2.160
  2.199   2.205   2.250   2.272   2.279   2.299   2.325   2.331
  2.354   2.356   2.398   2.411   2.427   2.490   2.524   2.548
  2.570   2.676   2.682   2.741   2.756   2.972   3.027   3.105
  3.109   3.225   3.247   3.551   3.570   3.797   3.805   4.063
  4.098   4.135   4.145   4.237   4.346   4.488   4.535
 --------------------------------------------------------------
 
          Ground-State Mulliken Net Atomic Charges

     Atom                 Charge (a.u.)    Spin (a.u.)
  --------------------------------------------------------
      1 S                     0.044144      -0.047048
      2 C                     0.098955       0.326712
      3 H                     0.250297      -0.016726
      4 C                    -0.365167      -0.033820
      5 H                     0.172924       0.000719
      6 C                     0.397581       0.156259
      7 H                     0.162512      -0.009302
      8 C                    -0.262097       0.122970
      9 C                    -0.260497       0.123800
     10 C                     0.399274       0.155893
     11 H                     0.162761      -0.009323
     12 C                    -0.366725      -0.033773
     13 H                     0.172844       0.000719
     14 C                     0.099433       0.326738
     15 H                     0.250304      -0.016727
     16 S                     0.043456      -0.047090
  --------------------------------------------------------
  Sum of atomic charges =     1.000000
  Sum of spin   charges =     1.000000

 -----------------------------------------------------------------
                    Cartesian Multipole Moments
 -----------------------------------------------------------------
    Charge (ESU x 10^10)
                 4.8032
    Dipole Moment (Debye)
         X      -3.2722      Y       0.4361      Z     -10.1703
       Tot      10.6927
    Quadrupole Moments (Debye-Ang)
        XX     -31.5837     XY      -2.3707     YY     -71.2755
        XZ      22.8247     YZ       2.8959     ZZ     -26.3970
    Octopole Moments (Debye-Ang^2)
       XXX      75.0680    XXY      15.0126    XYY      45.0334
       YYY       6.6512    XXZ      39.8095    XYZ      -0.0013
       YYZ     147.7904    XZZ     -46.6905    YZZ     -15.3723
       ZZZ     256.7131
    Hexadecapole Moments (Debye-Ang^3)
      XXXX   -1156.3102   XXXY     -46.7606   XXYY    -300.8311
      XYYY       7.6727   YYYY    -149.7440   XXXZ    -332.4589
      XXYZ     -34.6799   XYYZ    -221.1066   YYYZ     -81.7497
      XXZZ    -327.8384   XYZZ      32.3652   YYZZ    -513.9503
      XZZZ    -197.3484   YZZZ      17.2745   ZZZZ   -2074.2570
 -----------------------------------------------------------------
 Calculating analytic gradient of the SCF energy
 Gradient of SCF Energy
            1           2           3           4           5           6
    1   0.0005833  -0.0000901  -0.0000143  -0.0004928   0.0000212   0.0015244
    2  -0.0001808  -0.0003344   0.0000663   0.0000755  -0.0000760   0.0045521
    3  -0.0002831   0.0006930  -0.0000106  -0.0009684   0.0000889   0.0002277
            7           8           9          10          11          12
    1  -0.0000156  -0.0017390   0.0003574  -0.0001562   0.0001356   0.0005756
    2   0.0004337  -0.0048088  -0.0040234   0.0041298   0.0003583   0.0003655
    3   0.0000181  -0.0009759   0.0032445  -0.0024662  -0.0002074   0.0008675
           13          14          15          16
    1  -0.0000514  -0.0000604   0.0000294  -0.0006072
    2  -0.0001051  -0.0006163   0.0000451   0.0001185
    3  -0.0000457  -0.0004326  -0.0000158   0.0002659
 Max gradient component =       4.809E-03
 RMS gradient           =       1.480E-03
 Gradient time:  CPU 1.93 s  wall 1.96 s
 Geometry Optimization Parameters
   NAtoms,    NIC,     NZ,  NCons,   NDum,   NFix, NCnnct, MaxDiis
       16     111       0       1       0       0       0       0

 Cartesian Hessian Update
 Hessian Updated using BFGS Update


** CONSTRAINED OPTIMIZATION IN DELOCALIZED INTERNAL COORDINATES **
   Searching for a Minimum

   Optimization Cycle:   4

                       Coordinates (Angstroms)
     ATOM                X               Y               Z
      1  S        -0.0167942886    0.1315146901    0.0222150080
      2  C         1.6976058879    0.1222645338   -0.0202147748
      3  H         2.2582199443    0.1981277003    0.9039389978
      4  C         2.2151613055   -0.0028162385   -1.3120678878
      5  H         3.2776426685   -0.0052983104   -1.5231921834
      6  C         1.2173788335   -0.1108865851   -2.2763448642
      7  H         1.4052733927   -0.1875210680   -3.3412224496
      8  C        -0.0912640619   -0.0662913072   -1.7326068412
      9  C        -1.3179676027   -0.0501466282   -2.4253853497
     10  C        -2.5390579260    0.5483473091   -2.0237778050
     11  H        -2.6622005387    1.0406231944   -1.0656837890
     12  C        -3.5310529682    0.4752391149   -2.9972518792
     13  H        -4.5294493275    0.8816209636   -2.8900233825
     14  C        -3.0972665272   -0.1786559437   -4.1534114493
     15  H        -3.6788740456   -0.3870215390   -5.0436492898
     16  S        -1.4626758862   -0.6896081662   -4.0671198704
   Point Group: c1    Number of degrees of freedom:    42


   Energy is  -1104.569387711

              Constraints and their Current Values
                                        Value     Constraint
   Dihedral:        6   8   9  10     -150.000     -150.000
 Hessian Updated using BFGS Update

 41 Hessian modes will be used to form the next step
  Hessian Eigenvalues:
     0.019462    0.045000    0.045000    0.045000    0.045000    0.045002
     0.045002    0.045004    0.045008    0.045012    0.045277    0.045592
     0.159278    0.159946    0.159991    0.160000    0.160007    0.160641
     0.221282    0.221908    0.237836    0.249332    0.250007    0.290409
     0.294462    0.300025    0.312567    0.330706    0.354775    0.355038
     0.355128    0.355150    0.358271    0.358714    0.378329    0.404882
     0.427427    0.460599    0.463583    0.486129    0.497933

 Minimum Search - Taking Simple RFO Step
 Searching for Lamda that Minimizes Along All modes
 Value Taken    Lamda =  -0.00008783
 Step Taken.  Stepsize is  0.060121

                             Maximum     Tolerance    Cnvgd?
         Gradient           0.001471      0.000300      NO
         Displacement       0.034770      0.001200      NO
         Energy change     -0.000272      0.000001      NO


 New Cartesian Coordinates Obtained by Inverse Iteration

 Displacement from previous Coordinates is:  0.160556
 ----------------------------------------------------------------
             Standard Nuclear Orientation (Angstroms)
    I     Atom           X                Y                Z
 ----------------------------------------------------------------
    1      S      -0.0157745740     0.1395389234     0.0232835234
    2      C       1.6978018788     0.1418893683    -0.0236449475
    3      H       2.2608953698     0.2325430579     0.8976773881
    4      C       2.2137174546    -0.0010952436    -1.3141725579
    5      H       3.2758451747    -0.0001604431    -1.5269700951
    6      C       1.2139875569    -0.1285132507    -2.2746929275
    7      H       1.3987123940    -0.2216621256    -3.3388881727
    8      C      -0.0932146285    -0.0834856373    -1.7287529182
    9      C      -1.3216340661    -0.0667354144    -2.4199006956
   10      C      -2.5415231337     0.5319259412    -2.0165500908
   11      H      -2.6668653195     1.0093098651    -1.0511823930
   12      C      -3.5290899923     0.4772103328    -2.9964006762
   13      H      -4.5260594897     0.8871615231    -2.8896996957
   14      C      -3.0910743445    -0.1607449350    -4.1597243247
   15      H      -3.6700999398    -0.3547692080    -5.0548842860
   16      S      -1.4609454807    -0.6829210343    -4.0712949408
 ----------------------------------------------------------------
 Nuclear Repulsion Energy =   629.7440289446 hartrees
 There are       43 alpha and       42 beta electrons
 Applying Cartesian multipole field
    Component          Value
    ---------          -----
     (2,0,0)        1.00000E-11
     (0,2,0)        2.00000E-11
     (0,0,2)       -3.00000E-11
 Nucleus-field energy     =    -0.0000000506 hartrees
 Requested basis set is 6-31++G(d,p)
 There are 76 shells and 234 basis functions
 A cutoff of  1.0D-12 yielded   2533 shell pairs
 There are     24941 function pairs

 Q-Chem warning in module /project/projectdirs/jcesr/qchem/qc44/cnl_qc441/compile/cori/qc_src/libqints/qchem/aobasis.C, line 68:

 Using reconstructed effective core potential

 Smallest overlap matrix eigenvalue = 8.47E-07
 Linear dependence detected in AO basis
 Number of orthogonalized atomic orbitals = 233
 Maximum deviation from orthogonality = 2.216E-11
 Guess MOs from SCF MO coefficient file
 Reading MOs from coefficient file
 Size of previous SCF MO coefficient file: 109510 (expected); 109980 (actual). 

 Q-Chem warning in module /project/projectdirs/jcesr/qchem/qc44/cnl_qc441/compile/cori/qc_src/gesman/GuessMan.C, line 722:

 Inconsistent size for SCF MO coefficient file.  Please check basis and PURECART setting.

 Reading MOs from coefficient file
 An unrestricted hybrid HF-DFT SCF calculation will be
 performed using Pulay DIIS extrapolation
 Exchange:     0.2000 Hartree-Fock + 0.0800 Slater + 0.7200 B88
 Correlation:  0.1900 VWN1RPA + 0.8100 LYP
 Using SG-1 standard quadrature grid
 SCF converges when DIIS error is below 1.0E-08
 Geometry optimization detected.  Setting ReadMinima to 0
 Setting SaveMinima to 0
 ---------------------------------------
  Cycle       Energy         DIIS Error
 ---------------------------------------
    1   -1104.5647316471      4.77E-04
    2   -1104.5694271308      3.45E-05
    3   -1104.5694251379      4.97E-05
    4   -1104.5694431417      1.79E-05
    5   -1104.5694456527      4.19E-06
    6   -1104.5694457657      2.26E-06
    7   -1104.5694458058      5.49E-07
    8   -1104.5694458075      1.40E-07
    9   -1104.5694458071      7.52E-08
   10   -1104.5694458079      3.23E-08
   11   -1104.5694458076      7.75E-09 Convergence criterion met
 ---------------------------------------
 <S^2> = 0.7668
 SCF time:  CPU 7.50 s  wall 7.17 s
 SCF   energy in the final basis set = -1104.5694458076
 Total energy in the final basis set = -1104.5694458076
 
 --------------------------------------------------------------
 
                    Orbital Energies (a.u.)
 --------------------------------------------------------------
 
 Alpha MOs
 -- Occupied --
-89.098 -89.098 -10.432 -10.431 -10.418 -10.418 -10.392 -10.392
-10.380 -10.380  -8.157  -8.157  -6.121  -6.121  -6.117  -6.117
 -6.114  -6.114  -1.086  -1.061  -0.958  -0.933  -0.921  -0.880
 -0.788  -0.758  -0.725  -0.712  -0.701  -0.650  -0.595  -0.594
 -0.589  -0.584  -0.579  -0.556  -0.552  -0.535  -0.520  -0.469
 -0.442  -0.436  -0.393
 -- Virtual --
 -0.246  -0.182  -0.160  -0.155  -0.130  -0.124  -0.115  -0.110
 -0.100  -0.096  -0.093  -0.091  -0.080  -0.074  -0.070  -0.056
 -0.049  -0.038  -0.033  -0.031  -0.023  -0.014  -0.012  -0.007
 -0.002   0.001   0.010   0.010   0.014   0.020   0.021   0.025
  0.027   0.034   0.037   0.041   0.043   0.051   0.051   0.052
  0.069   0.074   0.079   0.082   0.093   0.096   0.100   0.105
  0.105   0.122   0.124   0.133   0.133   0.140   0.149   0.152
  0.167   0.180   0.203   0.208   0.214   0.236   0.237   0.245
  0.296   0.310   0.361   0.363   0.381   0.394   0.410   0.423
  0.446   0.460   0.470   0.473   0.484   0.484   0.501   0.509
  0.540   0.550   0.563   0.571   0.579   0.581   0.607   0.614
  0.650   0.650   0.655   0.676   0.696   0.746   0.768   0.779
  0.785   0.794   0.806   0.815   0.821   0.837   0.841   0.850
  0.861   0.871   0.891   0.922   0.931   0.954   0.963   0.973
  0.996   1.010   1.045   1.084   1.092   1.147   1.163   1.166
  1.172   1.174   1.213   1.277   1.294   1.316   1.331   1.418
  1.491   1.512   1.542   1.641   1.658   1.685   1.727   1.731
  1.753   1.781   1.793   1.843   1.862   1.883   1.894   1.948
  1.964   2.002   2.005   2.043   2.053   2.080   2.154   2.196
  2.203   2.247   2.265   2.273   2.298   2.321   2.326   2.351
  2.353   2.393   2.406   2.423   2.488   2.519   2.543   2.565
  2.672   2.677   2.740   2.754   2.971   3.026   3.105   3.108
  3.223   3.245   3.549   3.568   3.797   3.804   4.057   4.091
  4.132   4.142   4.230   4.340   4.484   4.531
 
 Beta MOs
 -- Occupied --
-89.098 -89.098 -10.430 -10.429 -10.414 -10.414 -10.390 -10.390
-10.380 -10.380  -8.157  -8.157  -6.122  -6.122  -6.118  -6.118
 -6.115  -6.114  -1.080  -1.055  -0.951  -0.931  -0.919  -0.870
 -0.784  -0.754  -0.720  -0.709  -0.699  -0.647  -0.593  -0.587
 -0.584  -0.578  -0.576  -0.549  -0.539  -0.533  -0.519  -0.442
 -0.438  -0.432
 -- Virtual --
 -0.328  -0.225  -0.167  -0.157  -0.151  -0.125  -0.117  -0.112
 -0.100  -0.098  -0.094  -0.092  -0.090  -0.079  -0.073  -0.069
 -0.056  -0.047  -0.037  -0.032  -0.030  -0.021  -0.013  -0.011
 -0.007  -0.001   0.001   0.011   0.012   0.015   0.021   0.022
  0.027   0.029   0.036   0.037   0.042   0.044   0.051   0.052
  0.054   0.070   0.076   0.081   0.084   0.096   0.098   0.100
  0.105   0.107   0.123   0.125   0.134   0.134   0.141   0.150
  0.152   0.168   0.183   0.204   0.210   0.216   0.237   0.239
  0.248   0.297   0.311   0.362   0.364   0.382   0.396   0.412
  0.425   0.447   0.462   0.475   0.476   0.488   0.497   0.504
  0.516   0.543   0.553   0.564   0.573   0.587   0.588   0.609
  0.617   0.652   0.655   0.661   0.681   0.698   0.747   0.772
  0.780   0.786   0.799   0.808   0.817   0.822   0.838   0.843
  0.851   0.863   0.874   0.893   0.923   0.932   0.955   0.968
  0.978   1.000   1.015   1.050   1.088   1.095   1.149   1.167
  1.171   1.181   1.181   1.218   1.281   1.301   1.323   1.335
  1.424   1.502   1.526   1.552   1.647   1.661   1.692   1.728
  1.733   1.758   1.783   1.798   1.848   1.867   1.888   1.902
  1.954   1.973   2.011   2.013   2.048   2.066   2.086   2.160
  2.199   2.206   2.249   2.273   2.279   2.299   2.325   2.332
  2.355   2.356   2.398   2.411   2.427   2.490   2.523   2.547
  2.569   2.675   2.681   2.742   2.756   2.972   3.027   3.105
  3.108   3.225   3.246   3.550   3.570   3.797   3.805   4.063
  4.098   4.136   4.144   4.236   4.347   4.488   4.535
 --------------------------------------------------------------
 
          Ground-State Mulliken Net Atomic Charges

     Atom                 Charge (a.u.)    Spin (a.u.)
  --------------------------------------------------------
      1 S                     0.043382      -0.047141
      2 C                     0.095191       0.326425
      3 H                     0.249950      -0.016726
      4 C                    -0.363247      -0.033867
      5 H                     0.173049       0.000698
      6 C                     0.393422       0.156274
      7 H                     0.161413      -0.009337
      8 C                    -0.254197       0.123441
      9 C                    -0.252329       0.124307
     10 C                     0.396206       0.155843
     11 H                     0.161725      -0.009358
     12 C                    -0.365514      -0.033772
     13 H                     0.172963       0.000695
     14 C                     0.095932       0.326408
     15 H                     0.249976      -0.016722
     16 S                     0.042078      -0.047169
  --------------------------------------------------------
  Sum of atomic charges =     1.000000
  Sum of spin   charges =     1.000000

 -----------------------------------------------------------------
                    Cartesian Multipole Moments
 -----------------------------------------------------------------
    Charge (ESU x 10^10)
                 4.8032
    Dipole Moment (Debye)
         X      -3.2683      Y       0.4588      Z     -10.1758
       Tot      10.6977
    Quadrupole Moments (Debye-Ang)
        XX     -31.6408     XY      -2.3952     YY     -71.3204
        XZ      22.7926     YZ       2.8785     ZZ     -26.3227
    Octopole Moments (Debye-Ang^2)
       XXX      75.3911    XXY      15.5152    XYY      45.2889
       YYY       6.4671    XXZ      40.0943    XYZ       0.7768
       YYZ     147.9864    XZZ     -46.9097    YZZ     -14.8160
       ZZZ     255.8216
    Hexadecapole Moments (Debye-Ang^3)
      XXXX   -1156.4240   XXXY     -47.7603   XXYY    -300.7802
      XYYY       7.9176   YYYY    -148.9128   XXXZ    -333.6238
      XXYZ     -36.7792   XYYZ    -221.6069   YYYZ     -82.0444
      XXZZ    -328.3303   XYZZ      28.8161   YYZZ    -514.9287
      XZZZ    -194.5966   YZZZ      13.7815   ZZZZ   -2069.6702
 -----------------------------------------------------------------
 Calculating analytic gradient of the SCF energy
 Gradient of SCF Energy
            1           2           3           4           5           6
    1   0.0007734  -0.0004664   0.0000489  -0.0001705   0.0000334   0.0010899
    2  -0.0000397   0.0001192  -0.0000673  -0.0000584  -0.0000095   0.0047270
    3  -0.0002873   0.0005509  -0.0000479  -0.0006259   0.0001563   0.0002072
            7           8           9          10          11          12
    1  -0.0001831  -0.0007096  -0.0007518   0.0003044   0.0002668   0.0001891
    2   0.0003157  -0.0053631  -0.0041403   0.0041540   0.0002503   0.0001995
    3  -0.0000655  -0.0011066   0.0035355  -0.0024793  -0.0000765   0.0005895
           13          14          15          16
    1  -0.0000484   0.0004527  -0.0000673  -0.0007615
    2  -0.0000774  -0.0002982  -0.0000269   0.0003150
    3  -0.0001361  -0.0004881   0.0000695   0.0002042
 Max gradient component =       5.363E-03
 RMS gradient           =       1.524E-03
 Gradient time:  CPU 1.91 s  wall 1.91 s
 Geometry Optimization Parameters
   NAtoms,    NIC,     NZ,  NCons,   NDum,   NFix, NCnnct, MaxDiis
       16     111       0       1       0       0       0       0

 Cartesian Hessian Update
 Hessian Updated using BFGS Update


** CONSTRAINED OPTIMIZATION IN DELOCALIZED INTERNAL COORDINATES **
   Searching for a Minimum

   Optimization Cycle:   5

                       Coordinates (Angstroms)
     ATOM                X               Y               Z
      1  S        -0.0157745740    0.1395389234    0.0232835234
      2  C         1.6978018788    0.1418893683   -0.0236449475
      3  H         2.2608953698    0.2325430579    0.8976773881
      4  C         2.2137174546   -0.0010952436   -1.3141725579
      5  H         3.2758451747   -0.0001604431   -1.5269700951
      6  C         1.2139875569   -0.1285132507   -2.2746929275
      7  H         1.3987123940   -0.2216621256   -3.3388881727
      8  C        -0.0932146285   -0.0834856373   -1.7287529182
      9  C        -1.3216340661   -0.0667354144   -2.4199006956
     10  C        -2.5415231337    0.5319259412   -2.0165500908
     11  H        -2.6668653195    1.0093098651   -1.0511823930
     12  C        -3.5290899923    0.4772103328   -2.9964006762
     13  H        -4.5260594897    0.8871615231   -2.8896996957
     14  C        -3.0910743445   -0.1607449350   -4.1597243247
     15  H        -3.6700999398   -0.3547692080   -5.0548842860
     16  S        -1.4609454807   -0.6829210343   -4.0712949408
   Point Group: c1    Number of degrees of freedom:    42


   Energy is  -1104.569445808

              Constraints and their Current Values
                                        Value     Constraint
   Dihedral:        6   8   9  10     -150.000     -150.000
 Hessian Updated using BFGS Update

 41 Hessian modes will be used to form the next step
  Hessian Eigenvalues:
     0.014938    0.044466    0.045000    0.045000    0.045000    0.045000
     0.045002    0.045002    0.045004    0.045010    0.045012    0.046060
     0.159615    0.159945    0.159966    0.159992    0.160000    0.162042
     0.221282    0.221801    0.237838    0.246758    0.249986    0.284091
     0.294461    0.299572    0.304084    0.312570    0.354777    0.355003
     0.355128    0.355166    0.358272    0.358767    0.380686    0.404881
     0.428809    0.451233    0.463587    0.486170    0.497934

 Minimum Search - Taking Simple RFO Step
 Searching for Lamda that Minimizes Along All modes
 Value Taken    Lamda =  -0.00002648
 Step Taken.  Stepsize is  0.032549

                             Maximum     Tolerance    Cnvgd?
         Gradient           0.001086      0.000300      NO
         Displacement       0.019135      0.001200      NO
         Energy change     -0.000058      0.000001      NO


 New Cartesian Coordinates Obtained by Inverse Iteration

 Displacement from previous Coordinates is:  0.084975
 ----------------------------------------------------------------
             Standard Nuclear Orientation (Angstroms)
    I     Atom           X                Y                Z
 ----------------------------------------------------------------
    1      S      -0.0164489937     0.1433724211     0.0238542091
    2      C       1.6976937012     0.1515062667    -0.0259483962
    3      H       2.2616166396     0.2507198854     0.8940249127
    4      C       2.2124700526     0.0001136813    -1.3154770400
    5      H       3.2741371398     0.0024230906    -1.5304982927
    6      C       1.2115971954    -0.1370298048    -2.2741663989
    7      H       1.3963310097    -0.2406931645    -3.3373730350
    8      C      -0.0940400581    -0.0917009790    -1.7268384419
    9      C      -1.3236891070    -0.0745946329    -2.4170048902
   10      C      -2.5422310720     0.5239563122    -2.0127007448
   11      H      -2.6710696713     0.9921839327    -1.0433536358
   12      C      -3.5275163240     0.4784136132    -2.9960234423
   13      H      -4.5235216869     0.8904373340    -2.8884105447
   14      C      -3.0875574192    -0.1517569252    -4.1623205107
   15      H      -3.6643558693    -0.3378279101    -5.0606319523
   16      S      -1.4587366769    -0.6800314007    -4.0729296064
[...]
    7   -1104.5694636692      1.79E-08
    8   -1104.5694636706      7.37E-09 Convergence criterion met
 ---------------------------------------
 <S^2> = 0.7668
 SCF time:  CPU 5.32 s  wall 5.16 s
 SCF   energy in the final basis set = -1104.5694636706
 Total energy in the final basis set = -1104.5694636706
 
 --------------------------------------------------------------
 
                    Orbital Energies (a.u.)
 --------------------------------------------------------------
 
 Alpha MOs
 -- Occupied --
-89.098 -89.098 -10.432 -10.431 -10.418 -10.418 -10.392 -10.392
-10.380 -10.380  -8.157  -8.157  -6.121  -6.121  -6.117  -6.117
 -6.114  -6.114  -1.086  -1.061  -0.958  -0.933  -0.921  -0.880
 -0.788  -0.758  -0.725  -0.712  -0.701  -0.650  -0.595  -0.594
 -0.588  -0.585  -0.579  -0.555  -0.552  -0.535  -0.520  -0.469
 -0.442  -0.436  -0.393
 -- Virtual --
 -0.246  -0.182  -0.161  -0.155  -0.130  -0.124  -0.114  -0.110
 -0.100  -0.096  -0.093  -0.091  -0.080  -0.074  -0.070  -0.056
 -0.049  -0.038  -0.033  -0.031  -0.023  -0.014  -0.012  -0.007
 -0.002   0.001   0.009   0.010   0.014   0.020   0.021   0.025
  0.027   0.034   0.037   0.041   0.043   0.051   0.051   0.052
  0.069   0.075   0.080   0.082   0.093   0.096   0.100   0.105
  0.106   0.122   0.124   0.133   0.133   0.140   0.149   0.151
  0.167   0.180   0.203   0.208   0.214   0.236   0.237   0.245
  0.297   0.310   0.361   0.363   0.381   0.395   0.410   0.424
  0.445   0.460   0.470   0.472   0.484   0.485   0.500   0.509
  0.541   0.549   0.563   0.572   0.578   0.581   0.608   0.615
  0.650   0.651   0.655   0.676   0.697   0.746   0.767   0.779
  0.784   0.794   0.805   0.816   0.821   0.837   0.841   0.850
  0.861   0.871   0.890   0.922   0.931   0.953   0.963   0.973
  0.995   1.010   1.046   1.085   1.092   1.148   1.163   1.164
  1.171   1.174   1.214   1.275   1.297   1.313   1.329   1.421
  1.489   1.511   1.540   1.642   1.659   1.684   1.727   1.731
  1.753   1.780   1.792   1.844   1.862   1.883   1.894   1.949
  1.964   2.002   2.003   2.043   2.053   2.080   2.154   2.195
  2.203   2.246   2.266   2.274   2.298   2.321   2.326   2.351
  2.352   2.393   2.406   2.423   2.487   2.519   2.543   2.565
  2.673   2.676   2.741   2.754   2.971   3.026   3.105   3.107
  3.223   3.245   3.549   3.568   3.797   3.804   4.057   4.091
  4.133   4.142   4.229   4.340   4.484   4.531
 
 Beta MOs
 -- Occupied --
-89.098 -89.098 -10.430 -10.429 -10.414 -10.414 -10.390 -10.390
-10.380 -10.380  -8.157  -8.157  -6.122  -6.122  -6.118  -6.118
 -6.114  -6.114  -1.080  -1.055  -0.951  -0.931  -0.919  -0.870
 -0.783  -0.754  -0.720  -0.710  -0.699  -0.647  -0.593  -0.587
 -0.584  -0.578  -0.577  -0.549  -0.539  -0.534  -0.519  -0.442
 -0.438  -0.432
 -- Virtual --
 -0.328  -0.225  -0.167  -0.157  -0.151  -0.125  -0.117  -0.112
 -0.100  -0.098  -0.095  -0.092  -0.090  -0.079  -0.073  -0.068
 -0.056  -0.047  -0.037  -0.032  -0.030  -0.021  -0.013  -0.010
 -0.007  -0.002   0.002   0.011   0.011   0.015   0.021   0.022
  0.027   0.029   0.036   0.037   0.042   0.044   0.052   0.052
  0.054   0.070   0.076   0.081   0.084   0.096   0.098   0.100
  0.105   0.107   0.123   0.125   0.134   0.134   0.141   0.151
  0.152   0.168   0.182   0.204   0.210   0.216   0.236   0.239
  0.248   0.298   0.312   0.361   0.364   0.382   0.396   0.412
  0.426   0.446   0.461   0.475   0.475   0.488   0.497   0.503
  0.516   0.543   0.553   0.564   0.574   0.587   0.587   0.610
  0.617   0.653   0.655   0.661   0.681   0.698   0.747   0.772
  0.780   0.786   0.799   0.807   0.818   0.822   0.838   0.843
  0.851   0.863   0.873   0.892   0.923   0.932   0.955   0.967
  0.978   1.000   1.015   1.050   1.089   1.095   1.150   1.167
  1.170   1.180   1.181   1.219   1.279   1.305   1.319   1.333
  1.427   1.500   1.525   1.551   1.647   1.662   1.691   1.728
  1.733   1.758   1.782   1.797   1.849   1.867   1.888   1.903
  1.955   1.973   2.009   2.013   2.048   2.066   2.086   2.160
  2.199   2.206   2.249   2.273   2.279   2.299   2.325   2.332
  2.354   2.355   2.399   2.410   2.427   2.490   2.523   2.547
  2.570   2.675   2.680   2.742   2.757   2.972   3.027   3.105
  3.108   3.225   3.247   3.550   3.570   3.797   3.805   4.063
  4.098   4.136   4.144   4.236   4.347   4.488   4.535
 --------------------------------------------------------------
 
          Ground-State Mulliken Net Atomic Charges

     Atom                 Charge (a.u.)    Spin (a.u.)
  --------------------------------------------------------
      1 S                     0.042536      -0.047276
      2 C                     0.093903       0.326276
      3 H                     0.249827      -0.016691
      4 C                    -0.363032      -0.034262
      5 H                     0.173010       0.000684
      6 C                     0.390530       0.156708
      7 H                     0.160830      -0.009356
      8 C                    -0.248935       0.123720
      9 C                    -0.246459       0.124512
     10 C                     0.394184       0.156232
     11 H                     0.161228      -0.009373
     12 C                    -0.365851      -0.034098
     13 H                     0.172921       0.000678
     14 C                     0.094821       0.326202
     15 H                     0.249863      -0.016682
     16 S                     0.040625      -0.047275
  --------------------------------------------------------
  Sum of atomic charges =     1.000000
  Sum of spin   charges =     1.000000

 -----------------------------------------------------------------
                    Cartesian Multipole Moments
 -----------------------------------------------------------------
    Charge (ESU x 10^10)
                 4.8032
    Dipole Moment (Debye)
         X      -3.2664      Y       0.4693      Z     -10.1780
       Tot      10.6996
    Quadrupole Moments (Debye-Ang)
        XX     -31.6752     XY      -2.4214     YY     -71.3473
        XZ      22.7248     YZ       2.8794     ZZ     -26.2938
    Octopole Moments (Debye-Ang^2)
       XXX      75.5786    XXY      15.8213    XYY      45.4429
       YYY       6.3239    XXZ      40.3388    XYZ       1.2685
       YYZ     148.0806    XZZ     -46.8399    YZZ     -14.5543
       ZZZ     255.3827
    Hexadecapole Moments (Debye-Ang^3)
      XXXX   -1156.3520   XXXY     -48.4284   XXYY    -300.6147
      XYYY       8.1085   YYYY    -148.6075   XXXZ    -334.7822
      XXYZ     -37.9964   XYYZ    -221.7656   YYYZ     -82.1283
      XXZZ    -328.9918   XYZZ      26.6530   YYZZ    -515.3703
      XZZZ    -193.3820   YZZZ      12.0564   ZZZZ   -2066.9540
 -----------------------------------------------------------------
 Calculating analytic gradient of the SCF energy
 Gradient of SCF Energy
            1           2           3           4           5           6
    1  -0.0000382   0.0000247   0.0000032   0.0000085  -0.0000005   0.0000822
    2   0.0000096   0.0000227  -0.0000075   0.0000103  -0.0000051   0.0051210
    3   0.0000098  -0.0000264  -0.0000009   0.0000275  -0.0000095  -0.0001215
            7           8           9          10          11          12
    1   0.0000080   0.0007028  -0.0022152   0.0014146  -0.0000000  -0.0000059
    2   0.0000193  -0.0056452  -0.0038992   0.0043452   0.0000245  -0.0000031
    3  -0.0000016  -0.0012788   0.0037336  -0.0023139  -0.0000106  -0.0000297
           13          14          15          16
    1  -0.0000009  -0.0000176  -0.0000056   0.0000400
    2  -0.0000022   0.0000327  -0.0000107  -0.0000123
    3   0.0000108   0.0000115   0.0000063  -0.0000063
 Max gradient component =       5.645E-03
 RMS gradient           =       1.585E-03
 Gradient time:  CPU 1.89 s  wall 1.94 s
 Geometry Optimization Parameters
   NAtoms,    NIC,     NZ,  NCons,   NDum,   NFix, NCnnct, MaxDiis
       16     111       0       1       0       0       0       0

 Cartesian Hessian Update
 Hessian Updated using BFGS Update


** CONSTRAINED OPTIMIZATION IN DELOCALIZED INTERNAL COORDINATES **
   Searching for a Minimum

   Optimization Cycle:   8

                       Coordinates (Angstroms)
     ATOM                X               Y               Z
      1  S        -0.0166295334    0.1438813246    0.0239724927
      2  C         1.6980461505    0.1521102450   -0.0262000506
      3  H         2.2615576034    0.2533070909    0.8938177589
      4  C         2.2123653134    0.0005057086   -1.3156508508
      5  H         3.2738320458    0.0025926707   -1.5317309945
      6  C         1.2112977259   -0.1373598905   -2.2742548045
      7  H         1.3972737160   -0.2447123350   -3.3368765353
      8  C        -0.0940347455   -0.0919415860   -1.7267816409
      9  C        -1.3238817187   -0.0748323749   -2.4167134960
     10  C        -2.5421645992    0.5236403747   -2.0124070406
     11  H        -2.6734176138    0.9888254642   -1.0419236390
     12  C        -3.5272957000    0.4787814023   -2.9961397396
     13  H        -4.5230953794    0.8911039423   -2.8876247889
     14  C        -3.0875706100   -0.1510414073   -4.1624528764
     15  H        -3.6633051534   -0.3356264247   -5.0617556852
     16  S        -1.4582986416   -0.6797424846   -4.0730759193
   Point Group: c1    Number of degrees of freedom:    42


   Energy is  -1104.569463671

              Constraints and their Current Values
                                        Value     Constraint
   Dihedral:        6   8   9  10     -150.000     -150.000
 Hessian Updated using BFGS Update

 41 Hessian modes will be used to form the next step
  Hessian Eigenvalues:
     0.014863    0.022082    0.044966    0.045000    0.045000    0.045000
     0.045001    0.045002    0.045004    0.045011    0.045014    0.045383
     0.157122    0.159945    0.159974    0.159992    0.160000    0.161942
     0.221283    0.222152    0.237841    0.247155    0.249987    0.285589
     0.294446    0.300558    0.305421    0.312573    0.354776    0.355001
     0.355128    0.355166    0.358271    0.358750    0.380196    0.404885
     0.427788    0.451995    0.463582    0.486133    0.497932

 Minimum Search - Taking Simple RFO Step
 Searching for Lamda that Minimizes Along All modes
 Value Taken    Lamda =   0.00000000
 Step Taken.  Stepsize is  0.001455

                             Maximum     Tolerance    Cnvgd?
         Gradient           0.000071      0.000300     YES
         Displacement       0.000881      0.001200     YES
         Energy change     -0.000000      0.000001     YES

 Final energy is   -1104.56946367063     


 ******************************
 **  OPTIMIZATION CONVERGED  **
 ******************************

                       Coordinates (Angstroms)
     ATOM                X               Y               Z
      1  S        -0.0166295334    0.1438813246    0.0239724927
      2  C         1.6980461505    0.1521102450   -0.0262000506
      3  H         2.2615576034    0.2533070909    0.8938177589
      4  C         2.2123653134    0.0005057086   -1.3156508508
      5  H         3.2738320458    0.0025926707   -1.5317309945
      6  C         1.2112977259   -0.1373598905   -2.2742548045
      7  H         1.3972737160   -0.2447123350   -3.3368765353
      8  C        -0.0940347455   -0.0919415860   -1.7267816409
      9  C        -1.3238817187   -0.0748323749   -2.4167134960
     10  C        -2.5421645992    0.5236403747   -2.0124070406
     11  H        -2.6734176138    0.9888254642   -1.0419236390
     12  C        -3.5272957000    0.4787814023   -2.9961397396
     13  H        -4.5230953794    0.8911039423   -2.8876247889
     14  C        -3.0875706100   -0.1510414073   -4.1624528764
     15  H        -3.6633051534   -0.3356264247   -5.0617556852
     16  S        -1.4582986416   -0.6797424846   -4.0730759193

Z-matrix Print:
$molecule
1 2
S 
C  1 1.715238
H  2 1.083645 1 119.696490
C  2 1.396539 1 113.239854 3 179.123720 0
H  4 1.083237 2 123.009490 1 178.753448 0
C  4 1.392920 2 112.435785 1 -0.623470 0
H  6 1.084188 4 124.081365 2 178.581509 0
C  6 1.416279 4 113.150648 2 0.083202 0
C  8 1.410256 6 127.997318 4 173.449690 0
C  9 1.416221 8 127.956206 6 -150.000000 0
H  10 1.084102 9 122.697655 8 -5.022145 0
C  10 1.392862 9 113.154639 8 173.577439 0
H  12 1.083239 10 124.553342 9 -179.342692 0
C  12 1.396493 10 112.427952 9 0.035727 0
H  14 1.083614 12 127.053740 10 178.429162 0
S  14 1.715429 12 113.242083 10 -0.602007 0
$end

 
 --------------------------------------------------------------
 
                    Orbital Energies (a.u.)
 --------------------------------------------------------------
 
 Alpha MOs
 -- Occupied --
-89.098 -89.098 -10.432 -10.431 -10.418 -10.418 -10.392 -10.392
-10.380 -10.380  -8.157  -8.157  -6.121  -6.121  -6.117  -6.117
 -6.114  -6.114  -1.086  -1.061  -0.958  -0.933  -0.921  -0.880
 -0.788  -0.758  -0.725  -0.712  -0.701  -0.650  -0.595  -0.594
 -0.588  -0.585  -0.579  -0.555  -0.552  -0.535  -0.520  -0.469
 -0.442  -0.436  -0.393
 -- Virtual --
 -0.246  -0.182  -0.161  -0.155  -0.130  -0.124  -0.114  -0.110
 -0.100  -0.096  -0.093  -0.091  -0.080  -0.074  -0.070  -0.056
 -0.049  -0.038  -0.033  -0.031  -0.023  -0.014  -0.012  -0.007
 -0.002   0.001   0.009   0.010   0.014   0.020   0.021   0.025
  0.027   0.034   0.037   0.041   0.043   0.051   0.051   0.052
  0.069   0.075   0.080   0.082   0.093   0.096   0.100   0.105
  0.106   0.122   0.124   0.133   0.133   0.140   0.149   0.151
  0.167   0.180   0.203   0.208   0.214   0.236   0.237   0.245
  0.297   0.310   0.361   0.363   0.381   0.395   0.410   0.424
  0.445   0.460   0.470   0.472   0.484   0.485   0.500   0.509
  0.541   0.549   0.563   0.572   0.578   0.581   0.608   0.615
  0.650   0.651   0.655   0.676   0.697   0.746   0.767   0.779
  0.784   0.794   0.805   0.816   0.821   0.837   0.841   0.850
  0.861   0.871   0.890   0.922   0.931   0.953   0.963   0.973
  0.995   1.010   1.046   1.085   1.092   1.148   1.163   1.164
  1.171   1.174   1.214   1.275   1.297   1.313   1.329   1.421
  1.489   1.511   1.540   1.642   1.659   1.684   1.727   1.731
  1.753   1.780   1.792   1.844   1.862   1.883   1.894   1.949
  1.964   2.002   2.003   2.043   2.053   2.080   2.154   2.195
  2.203   2.246   2.266   2.274   2.298   2.321   2.326   2.351
  2.352   2.393   2.406   2.423   2.487   2.519   2.543   2.565
  2.673   2.676   2.741   2.754   2.971   3.026   3.105   3.107
  3.223   3.245   3.549   3.568   3.797   3.804   4.057   4.091
  4.133   4.142   4.229   4.340   4.484   4.531
 
 Beta MOs
 -- Occupied --
-89.098 -89.098 -10.430 -10.429 -10.414 -10.414 -10.390 -10.390
-10.380 -10.380  -8.157  -8.157  -6.122  -6.122  -6.118  -6.118
 -6.114  -6.114  -1.080  -1.055  -0.951  -0.931  -0.919  -0.870
 -0.783  -0.754  -0.720  -0.710  -0.699  -0.647  -0.593  -0.587
 -0.584  -0.578  -0.577  -0.549  -0.539  -0.534  -0.519  -0.442
 -0.438  -0.432
 -- Virtual --
 -0.328  -0.225  -0.167  -0.157  -0.151  -0.125  -0.117  -0.112
 -0.100  -0.098  -0.095  -0.092  -0.090  -0.079  -0.073  -0.068
 -0.056  -0.047  -0.037  -0.032  -0.030  -0.021  -0.013  -0.010
 -0.007  -0.002   0.002   0.011   0.011   0.015   0.021   0.022
  0.027   0.029   0.036   0.037   0.042   0.044   0.052   0.052
  0.054   0.070   0.076   0.081   0.084   0.096   0.098   0.100
  0.105   0.107   0.123   0.125   0.134   0.134   0.141   0.151
  0.152   0.168   0.182   0.204   0.210   0.216   0.236   0.239
  0.248   0.298   0.312   0.361   0.364   0.382   0.396   0.412
  0.426   0.446   0.461   0.475   0.475   0.488   0.497   0.503
  0.516   0.543   0.553   0.564   0.574   0.587   0.587   0.610
  0.617   0.653   0.655   0.661   0.681   0.698   0.747   0.772
  0.780   0.786   0.799   0.807   0.818   0.822   0.838   0.843
  0.851   0.863   0.873   0.892   0.923   0.932   0.955   0.967
  0.978   1.000   1.015   1.050   1.089   1.095   1.150   1.167
  1.170   1.180   1.181   1.219   1.279   1.305   1.319   1.333
  1.427   1.500   1.525   1.551   1.647   1.662   1.691   1.728
  1.733   1.758   1.782   1.797   1.849   1.867   1.888   1.903
  1.955   1.973   2.009   2.013   2.048   2.066   2.086   2.160
  2.199   2.206   2.249   2.273   2.279   2.299   2.325   2.332
  2.354   2.355   2.399   2.410   2.427   2.490   2.523   2.547
  2.570   2.675   2.680   2.742   2.757   2.972   3.027   3.105
  3.108   3.225   3.247   3.550   3.570   3.797   3.805   4.063
  4.098   4.136   4.144   4.236   4.347   4.488   4.535
 --------------------------------------------------------------
 
          Ground-State Mulliken Net Atomic Charges

     Atom                 Charge (a.u.)    Spin (a.u.)
  --------------------------------------------------------
      1 S                     0.042536      -0.047276
      2 C                     0.093903       0.326276
      3 H                     0.249827      -0.016691
      4 C                    -0.363032      -0.034262
      5 H                     0.173010       0.000684
      6 C                     0.390530       0.156708
      7 H                     0.160830      -0.009356
      8 C                    -0.248935       0.123720
      9 C                    -0.246459       0.124512
     10 C                     0.394184       0.156232
     11 H                     0.161228      -0.009373
     12 C                    -0.365851      -0.034098
     13 H                     0.172921       0.000678
     14 C                     0.094821       0.326202
     15 H                     0.249863      -0.016682
     16 S                     0.040625      -0.047275
  --------------------------------------------------------
  Sum of atomic charges =     1.000000
  Sum of spin   charges =     1.000000

 -----------------------------------------------------------------
                    Cartesian Multipole Moments
 -----------------------------------------------------------------
    Charge (ESU x 10^10)
                 4.8032
    Dipole Moment (Debye)
         X      -3.2664      Y       0.4693      Z     -10.1780
       Tot      10.6996
    Quadrupole Moments (Debye-Ang)
        XX     -31.6752     XY      -2.4214     YY     -71.3473
        XZ      22.7248     YZ       2.8794     ZZ     -26.2938
    Octopole Moments (Debye-Ang^2)
       XXX      75.5786    XXY      15.8213    XYY      45.4429
       YYY       6.3239    XXZ      40.3388    XYZ       1.2685
       YYZ     148.0806    XZZ     -46.8399    YZZ     -14.5543
       ZZZ     255.3827
    Hexadecapole Moments (Debye-Ang^3)
      XXXX   -1156.3520   XXXY     -48.4284   XXYY    -300.6147
      XYYY       8.1085   YYYY    -148.6075   XXXZ    -334.7822
      XXYZ     -37.9964   XYYZ    -221.7656   YYYZ     -82.1283
      XXZZ    -328.9918   XYZZ      26.6530   YYZZ    -515.3703
      XZZZ    -193.3820   YZZZ      12.0564   ZZZZ   -2066.9540
 -----------------------------------------------------------------
Archival summary:
1\1\nid00852\OPT\ProcedureUnspecified\BasisUnspecified\286(1+,2)\bwood\WedMay3102:27:162017WedMay3102:27:162017\0\\#,OPT,ProcedureUnspecified,BasisUnspecified,\\1,2\S\C,1,1.71524\H,2,1.08365,1,119.696\C,2,1.39654,1,113.24,3,179.124,0\H,4,1.08324,2,123.009,1,178.753,0\C,4,1.39292,2,112.436,1,-0.62347,0\H,6,1.08419,4,124.081,2,178.582,0\C,6,1.41628,4,113.151,2,0.0832024,0\C,8,1.41026,6,127.997,4,173.45,0\C,9,1.41622,8,127.956,6,-150,0\H,10,1.0841,9,122.698,8,-5.02215,0\C,10,1.39286,9,113.155,8,173.577,0\H,12,1.08324,10,124.553,9,-179.343,0\C,12,1.39649,10,112.428,9,0.0357273,0\H,14,1.08361,12,127.054,10,178.429,0\S,14,1.71543,12,113.242,10,-0.602007,0\\\@

 Total job time:  85.73s(wall), 84.34s(cpu) 
 Wed May 31 02:27:16 2017

        *************************************************************
        *                                                           *
        *  Thank you very much for using Q-Chem.  Have a nice day.  *
        *                                                           *
        *************************************************************


0 sent ACK to 0 
now end server 0 ... 
