srun -N 1 --ntasks-per-node 16 --cpus-per-task 4 --cpu_bind=cores --nodelist nid00782 /global/project/projectdirs/jcesr/qchem/qc44/cnl_qc441/dist/exe/qcprog.cori.haswell.exe .pt_n2_cation_-120.0.in.26681.qcin.1 /global/cscratch1/sd/bwood/qchem/nx/qchem26681/
Process 1 of 16 is on nid00782 - thread support 0
Process 2 of 16 is on nid00782 - thread support 0
Process 4 of 16 is on nid00782 - thread support 0
Process 6 of 16 is on nid00782 - thread support 0
Process 0 of 16 is on nid00782 - thread support 0
initial socket setup ...start
Process 3 of 16 is on nid00782 - thread support 0
Process 5 of 16 is on nid00782 - thread support 0
Process 15 of 16 is on nid00782 - thread support 0
initial socket setup ...done 
now start server 0 ... 
nid00782 10.128.3
Q-Chem Developer Version! Running on 10.128.3.*
                  Welcome to Q-Chem
     A Quantum Leap Into The Future Of Chemistry


 Q-Chem 4.4, Q-Chem, Inc., Pleasanton, CA (2016)

 Y. Shao,  Z. Gan,  E. Epifanovsky,  A. T. B. Gilbert,  M. Wormit,  
 J. Kussmann,  A. W. Lange,  A. Behn,  J. Deng,  X. Feng,  D. Ghosh,  
 M. Goldey,  P. R. Horn,  L. D. Jacobson,  I. Kaliman,  F. Rob,  
 R. Z. Khaliullin,  T. Kus,  A. Landau,  J. Liu,  E. I. Proynov,  Y. M. Rhee,  
 R. M. Richard,  M. A. Rohrdanz,  R. P. Steele,  E. J. Sundstrom,  
 H. L. Woodcock III,  P. M. Zimmerman,  D. Zuev,  B. Albrecht,  E. Alguire,  
 B. Austin,  S. A. Baeppler,  G. J. O. Beran,  Y. A. Bernard,  
 E. J. Berquist,  K. Brandhorst,  K. B. Bravaya,  S. T. Brown,  D. Casanova,  
 C.-M. Chang,  Y. Chen,  S. H. Chien,  K. D. Closser,  M. P. Coons,  
 D. L. Crittenden,  S. Dasgupta,  M. Diedenhofen,  R. A. DiStasio Jr.,  
 H. Do,  A. D. Dutoi,  R. G. Edgar,  P.-T. Fang,  S. Fatehi,  Q. Feng,  
 L. Fusti-Molnar,  A. Ghysels,  A. Golubeva-Zadorozhnaya,  J. Gomes,  
 A. Gunina,  M. W. D. Hanson-Heine,  P. H. P. Harbach,  A. W. Hauser,  
 J. E. Herr,  E. G. Hohenstein,  Z. C. Holden,  K. Hui,  T.-C. Jagau,  H. Ji,  
 B. Kaduk,  K. Khistyaev,  Jaehoon Kim,  Jihan Kim,  R. A. King,  
 P. Klunzinger,  K. Koh,  D. Kosenkov,  T. Kowalczyk,  C. M. Krauter,  
 A. Kunitsa,  K. U. Lao,  A. Laurent,  K. V. Lawler,  J. Lee,  D. Lefrancois,  
 S. Lehtola,  S. V. Levchenko,  C. Y. Lin,  Y.-S. Lin,  F. Liu,  E. Livshits,  
 R. C. Lochan,  A. Luenser,  P. Manohar,  S. F. Manzer,  S.-P. Mao,  Y. Mao,  
 N. Mardirossian,  A. V. Marenich,  L. A. Martinez-Martinez,  S. A. Maurer,  
 N. J. Mayhall,  J.-M. Mewes,  A. F. Morrison,  K. Nanda,  T. S. Nguyen-Beck,  
 C. M. Oana,  R. Olivares-Amaya,  D. P. O'Neill,  J. A. Parkhill,  
 T. M. Perrine,  R. Peverati,  P. A. Pieniazek,  F. Plasser,  A. Prociuk,  
 D. R. Rehn,  E. Rosta,  N. J. Russ,  N. Sergueev,  S. M. Sharada,  
 S. Sharma,  D. W. Small,  A. Sodt,  T. Stauch,  T. Stein,  D. Stuck,  
 Y.-C. Su,  A. J. W. Thom,  T. Tsuchimochi,  L. Vogt,  O. Vydrov,  T. Wang,  
 M. A. Watson,  J. Wenzel,  A. White,  C. F. Williams,  V. Vanovschi,  
 K. Yao,  S. Yeganeh,  S. R. Yost,  Z.-Q. You,  I. Y. Zhang,  X. Zhang,  
 Y. Zhao,  B. R. Brooks,  G. K. L. Chan,  D. M. Chipman,  C. J. Cramer,  
 W. A. Goddard III,  M. S. Gordon,  W. J. Hehre,  A. Klamt,  
 H. F. Schaefer III,  M. W. Schmidt,  C. D. Sherrill,  D. G. Truhlar,  
 A. Warshel,  X. Xu,  A. Aspuru-Guzik,  R. Baer,  A. T. Bell,  N. A. Besley,  
 J.-D. Chai,  A. Dreuw,  B. D. Dunietz,  T. R. Furlani,  S. R. Gwaltney,  
 C.-P. Hsu,  Y. Jung,  J. Kong,  D. S. Lambrecht,  W. Liang,  C. Ochsenfeld,  
 V. A. Rassolov,  L. V. Slipchenko,  J. E. Subotnik,  T. Van Voorhis,  
 J. M. Herbert,  A. I. Krylov,  P. M. W. Gill,  M. Head-Gordon

 Contributors to earlier versions of Q-Chem not listed above: 
 R. D. Adamson,  J. Baker,  E. F. C. Byrd,  A. K. Chakraborty,  C.-L. Cheng,  
 H. Dachsel,  R. J. Doerksen,  G. Hawkins,  A. Heyden,  S. Hirata,  
 G. Kedziora,  F. J. Keil,  C. Kelley,  P. P. Korambath,  W. Kurlancheek,  
 A. M. Lee,  M. S. Lee,  D. Liotard,  I. Lotan,  P. E. Maslen,  N. Nair,  
 D. Neuhauser,  R. Olson,  B. Peters,  J. Ritchie,  N. E. Schultz,  
 N. Shenvi,  A. C. Simmonett,  K. S. Thanthiriwatte,  Q. Wu,  W. Zhang

 Please cite Q-Chem as follows:
 Y. Shao et al., Mol. Phys. 113, 184-215 (2015)
 DOI: 10.1080/00268976.2014.952696

 Q-Chem 4.4.2 for Intel X86 EM64T Linux

 Parts of Q-Chem use Armadillo 5.200.1 (Boston Tea Smuggler).
 http://arma.sourceforge.net/

 Q-Chem begins on Wed May 31 02:25:47 2017  

Host: nid00776
0

     Scratch files written to /global/cscratch1/sd/bwood/qchem/nx/qchem26681.0//
 Parallel job on  16  processors

Checking the input file for inconsistencies... 	...done.

--------------------------------------------------------------
User input:
--------------------------------------------------------------
$molecule
 1  2
 S           0.00238887        0.06077275        0.00183269
 C           1.73707619        0.03315849        0.00323229
 H           2.27612737        0.05289032        0.94042557
 C           2.24169204       -0.01546201       -1.26965798
 H           3.30285780       -0.04005365       -1.48972496
 C           1.22479222       -0.01612968       -2.26811464
 H           1.42674790       -0.02650987       -3.33334501
 C          -0.05393771        0.02880388       -1.75170966
 C          -1.32450815        0.04889988       -2.45636342
 C          -2.31837192        1.00567861       -2.42724843
 H          -2.23977204        1.91601295       -1.84335501
 C          -3.43197739        0.69444124       -3.26025436
 H          -4.30084585        1.33341705       -3.36921385
 C          -3.28430360       -0.49580374       -3.92255603
 H          -3.96462540       -0.96729104       -4.61850376
 S          -1.78262199       -1.26726977       -3.52339715
$end


$rem
         jobtype = opt
        exchange = b3lyp
           basis = 6-31++g**
  max_scf_cycles = 150
      mem_static = 775
       mem_total = 7750
      sym_ignore = true
        symmetry = false
          thresh = 12
$end


$opt
CONSTRAINT
tors 6 8 9 10 -120.0
ENDCONSTRAINT
$end

--------------------------------------------------------------
 ----------------------------------------------------------------
             Standard Nuclear Orientation (Angstroms)
    I     Atom           X                Y                Z
 ----------------------------------------------------------------
    1      S       0.0023888700     0.0607727500     0.0018326900
    2      C       1.7370761900     0.0331584900     0.0032322900
    3      H       2.2761273700     0.0528903200     0.9404255700
    4      C       2.2416920400    -0.0154620100    -1.2696579800
    5      H       3.3028578000    -0.0400536500    -1.4897249600
    6      C       1.2247922200    -0.0161296800    -2.2681146400
    7      H       1.4267479000    -0.0265098700    -3.3333450100
    8      C      -0.0539377100     0.0288038800    -1.7517096600
    9      C      -1.3245081500     0.0488998800    -2.4563634200
   10      C      -2.3183719200     1.0056786100    -2.4272484300
   11      H      -2.2397720400     1.9160129500    -1.8433550100
   12      C      -3.4319773900     0.6944412400    -3.2602543600
   13      H      -4.3008458500     1.3334170500    -3.3692138500
   14      C      -3.2843036000    -0.4958037400    -3.9225560300
   15      H      -3.9646254000    -0.9672910400    -4.6185037600
   16      S      -1.7826219900    -1.2672697700    -3.5233971500
 ----------------------------------------------------------------
 Nuclear Repulsion Energy =   628.3175491958 hartrees
 There are       43 alpha and       42 beta electrons
 Requested basis set is 6-31++G(d,p)
 There are 76 shells and 234 basis functions

 Total QAlloc Memory Limit   7750 MB
 Mega-Array Size       758 MB
 MEM_STATIC part       775 MB
 A cutoff of  1.0D-12 yielded   2534 shell pairs
 There are     24998 function pairs

 Q-Chem warning in module /project/projectdirs/jcesr/qchem/qc44/cnl_qc441/compile/cori/qc_src/libqints/qchem/aobasis.C, line 68:

 Using reconstructed effective core potential

 
 -------------------------------------------------------
 OpenMP Integral Computing Module                       
 Release: version 1.0, May 2013, Q-Chem Inc. Pittsburgh 
 -------------------------------------------------------
 Integral Job Info:
 Integral job number is                      11
 Integral operator is                         1
 short-range coefficients                     0
 long-range coefficients              100000000
 Omega coefficients                           0
 if combine SR and LR in K                    0
 Integral screening is                        0
 Integral computing path is                   2
 max size of driver memory is            800000
 size of driver memory is                593474
 size of scratch memory is             15166112
 max col of scratch BK array               1296
 max len of scratch array in speh3          155
 max len of scratch index in speh4           18
 max int batch size is                      520
 min int batch size is                       52
 fixed nKL is                                52
 max L of basis functions is                  2
 order of int derivative is                   0
 number of shells is                         76
 number of basis is                         234
 number of cartesian basis is               234
 number of contracted shell pairs          2534
 number of primitive shell pairs           8241
 maxK2 (contraction) of shell pair           36
 max number of K2 of shell pair               1
 max number of CS2 of shell pair            270
 max number of PS2 of shell pair           1512
 mem total for path MDJ                   52824
 -------------------------------------------------------
 Smallest overlap matrix eigenvalue = 1.08E-06

 Scale SEOQF with 1.000000e-01/1.000000e-01/1.000000e-01

 Standard Electronic Orientation quadrupole field applied
 Nucleus-field energy     =    -0.0000000421 hartrees
 Guess from superposition of atomic densities
 Warning:  Energy on first SCF cycle will be non-variational
 An unrestricted hybrid HF-DFT SCF calculation will be
 performed using Pulay DIIS extrapolation
 Exchange:     0.2000 Hartree-Fock + 0.0800 Slater + 0.7200 B88
 Correlation:  0.1900 VWN1RPA + 0.8100 LYP
 Using SG-1 standard quadrature grid
 SCF converges when DIIS error is below 1.0E-08
 Inaccurate integrated density:
   Number of electrons =    85
   Numerical integral  =    86.000735128603
   Relative error      =     1.1773354454 %
 ---------------------------------------
  Cycle       Energy         DIIS Error
 ---------------------------------------
    1   -1107.1538880246      4.39E-02
    2   -1104.4197844377      4.02E-03
    3   -1104.1356708228      7.00E-03
    4   -1104.5322211004      1.38E-03
    5   -1104.5439294993      7.15E-04
    6   -1104.5482289412      2.73E-04
    7   -1104.5488483470      1.42E-04
    8   -1104.5490824921      3.74E-05
    9   -1104.5491460285      2.60E-05
   10   -1104.5492098441      1.27E-05
   11   -1104.5492376934      5.75E-06
   12   -1104.5492415087      3.79E-06
   13   -1104.5492427292      1.53E-06
   14   -1104.5492430822      4.17E-07
   15   -1104.5492431021      2.34E-07
   16   -1104.5492431058      5.27E-08
   17   -1104.5492431064      2.76E-08
   18   -1104.5492431065      1.15E-08
   19   -1104.5492431068      7.84E-09 Convergence criterion met
 ---------------------------------------
 <S^2> = 0.7611
 SCF time:  CPU 12.74 s  wall 12.09 s
 SCF   energy in the final basis set = -1104.5492431068
 Total energy in the final basis set = -1104.5492431068
 
 --------------------------------------------------------------
 
                    Orbital Energies (a.u.)
 --------------------------------------------------------------
 
 Alpha MOs
 -- Occupied --
-89.094 -89.094 -10.434 -10.433 -10.417 -10.417 -10.391 -10.391
-10.380 -10.380  -8.153  -8.153  -6.118  -6.118  -6.113  -6.113
 -6.110  -6.110  -1.087  -1.063  -0.959  -0.924  -0.917  -0.892
 -0.786  -0.751  -0.735  -0.711  -0.698  -0.653  -0.598  -0.594
 -0.592  -0.582  -0.576  -0.556  -0.554  -0.524  -0.519  -0.453
 -0.435  -0.431  -0.418
 -- Virtual --
 -0.228  -0.199  -0.156  -0.154  -0.135  -0.123  -0.122  -0.106
 -0.099  -0.094  -0.091  -0.086  -0.081  -0.077  -0.068  -0.059
 -0.046  -0.039  -0.034  -0.033  -0.018  -0.018  -0.015  -0.009
  0.001   0.004   0.005   0.008   0.011   0.015   0.023   0.023
  0.027   0.029   0.033   0.034   0.040   0.049   0.053   0.059
  0.061   0.064   0.072   0.075   0.082   0.090   0.099   0.107
  0.112   0.113   0.122   0.134   0.138   0.139   0.150   0.156
  0.175   0.175   0.179   0.187   0.216   0.224   0.240   0.241
  0.281   0.303   0.306   0.348   0.366   0.369   0.377   0.418
  0.425   0.434   0.455   0.465   0.478   0.486   0.500   0.514
  0.534   0.551   0.559   0.564   0.573   0.588   0.598   0.609
  0.612   0.637   0.637   0.659   0.668   0.708   0.747   0.768
  0.776   0.784   0.795   0.806   0.810   0.833   0.836   0.852
  0.858   0.859   0.864   0.914   0.920   0.923   0.936   0.951
  0.979   1.012   1.026   1.044   1.089   1.107   1.146   1.166
  1.169   1.175   1.189   1.210   1.286   1.287   1.315   1.355
  1.367   1.504   1.509   1.575   1.617   1.676   1.695   1.710
  1.743   1.749   1.788   1.816   1.827   1.852   1.894   1.918
  1.945   1.949   2.000   2.001   2.036   2.079   2.086   2.157
  2.199   2.201   2.251   2.256   2.288   2.299   2.323   2.331
  2.348   2.353   2.411   2.417   2.423   2.476   2.525   2.533
  2.566   2.670   2.679   2.717   2.751   2.981   3.011   3.108
  3.111   3.235   3.255   3.550   3.569   3.798   3.801   4.079
  4.123   4.131   4.152   4.242   4.346   4.478   4.530
 
 Beta MOs
 -- Occupied --
-89.094 -89.094 -10.431 -10.431 -10.413 -10.413 -10.390 -10.390
-10.380 -10.380  -8.153  -8.153  -6.118  -6.118  -6.114  -6.114
 -6.110  -6.110  -1.080  -1.057  -0.951  -0.921  -0.914  -0.882
 -0.781  -0.747  -0.730  -0.708  -0.696  -0.650  -0.594  -0.591
 -0.583  -0.579  -0.573  -0.546  -0.541  -0.523  -0.518  -0.433
 -0.428  -0.424
 -- Virtual --
 -0.354  -0.210  -0.183  -0.151  -0.150  -0.127  -0.120  -0.114
 -0.103  -0.098  -0.092  -0.090  -0.085  -0.080  -0.075  -0.067
 -0.058  -0.045  -0.038  -0.033  -0.032  -0.017  -0.017  -0.015
 -0.009   0.002   0.005   0.006   0.009   0.012   0.018   0.024
  0.024   0.028   0.030   0.033   0.036   0.042   0.050   0.054
  0.061   0.062   0.065   0.074   0.077   0.083   0.091   0.100
  0.108   0.113   0.113   0.126   0.135   0.139   0.140   0.152
  0.158   0.176   0.177   0.180   0.189   0.218   0.225   0.242
  0.243   0.283   0.304   0.308   0.350   0.366   0.371   0.377
  0.420   0.427   0.435   0.457   0.467   0.485   0.495   0.506
  0.522   0.536   0.555   0.561   0.565   0.575   0.590   0.601
  0.615   0.618   0.639   0.641   0.664   0.673   0.711   0.748
  0.774   0.779   0.786   0.796   0.809   0.811   0.835   0.838
  0.853   0.859   0.861   0.867   0.916   0.921   0.925   0.939
  0.953   0.983   1.016   1.031   1.049   1.092   1.110   1.149
  1.173   1.176   1.179   1.195   1.214   1.291   1.293   1.320
  1.362   1.376   1.517   1.522   1.581   1.625   1.682   1.700
  1.712   1.745   1.752   1.793   1.822   1.832   1.858   1.898
  1.924   1.954   1.958   2.009   2.011   2.045   2.085   2.092
  2.162   2.202   2.204   2.252   2.263   2.295   2.301   2.327
  2.335   2.352   2.356   2.416   2.420   2.428   2.480   2.529
  2.538   2.572   2.673   2.681   2.719   2.754   2.982   3.013
  3.108   3.111   3.236   3.257   3.552   3.571   3.798   3.802
  4.085   4.127   4.138   4.155   4.249   4.354   4.481   4.533
 --------------------------------------------------------------
 
          Ground-State Mulliken Net Atomic Charges

     Atom                 Charge (a.u.)    Spin (a.u.)
  --------------------------------------------------------
      1 S                     0.138896      -0.052777
      2 C                     0.069991       0.292775
      3 H                     0.247218      -0.013768
      4 C                    -0.375995      -0.008392
      5 H                     0.173140      -0.000503
      6 C                     0.282286       0.111919
      7 H                     0.180772      -0.006475
      8 C                    -0.212547       0.177337
      9 C                    -0.218568       0.176978
     10 C                     0.280253       0.111996
     11 H                     0.180833      -0.006454
     12 C                    -0.375273      -0.008329
     13 H                     0.173160      -0.000507
     14 C                     0.069100       0.292580
     15 H                     0.247197      -0.013768
     16 S                     0.139539      -0.052613
  --------------------------------------------------------
  Sum of atomic charges =     1.000000
  Sum of spin   charges =     1.000000

 -----------------------------------------------------------------
                    Cartesian Multipole Moments
 -----------------------------------------------------------------
    Charge (ESU x 10^10)
                 4.8032
    Dipole Moment (Debye)
         X      -3.2586      Y       0.3537      Z     -10.1970
       Tot      10.7108
    Quadrupole Moments (Debye-Ang)
        XX     -31.3308     XY      -1.5956     YY     -66.7803
        XZ      25.1591     YZ       2.6589     ZZ     -30.3683
    Octopole Moments (Debye-Ang^2)
       XXX      83.6472    XXY      12.7855    XYY      33.9790
       YYY      23.7166    XXZ      25.4395    XYZ      -5.2146
       YYZ     129.2384    XZZ     -45.3620    YZZ     -13.3325
       ZZZ     285.1356
    Hexadecapole Moments (Debye-Ang^3)
      XXXX   -1228.3803   XXXY     -51.7705   XXYY    -291.6212
      XYYY     -33.4973   YYYY    -265.8331   XXXZ    -319.2294
      XXYZ     -24.1355   XYYZ    -185.8594   YYYZ    -112.2837
      XXZZ    -261.9288   XYZZ      49.5034   YYZZ    -445.0076
      XZZZ    -287.1112   YZZZ      -3.0337   ZZZZ   -2108.1288
 -----------------------------------------------------------------
 Calculating analytic gradient of the SCF energy
 Gradient of SCF Energy
            1           2           3           4           5           6
    1   0.0027668   0.0173534  -0.0007422   0.0009998   0.0003653  -0.0321053
    2  -0.0088027  -0.0007904   0.0025999  -0.0019720  -0.0012009   0.0103874
    3  -0.0112685  -0.0089623  -0.0012620   0.0296035   0.0006592   0.0021740
            7           8           9          10          11          12
    1  -0.0005380   0.0246763  -0.0203673   0.0315788   0.0005260  -0.0088076
    2   0.0003125  -0.0016250   0.0148075  -0.0116683  -0.0000639  -0.0232482
    3   0.0000145  -0.0055959  -0.0012337  -0.0015475  -0.0001438  -0.0161129
           13          14          15          16
    1  -0.0010007  -0.0130491   0.0021040  -0.0037604
    2  -0.0009054   0.0144500   0.0017915   0.0059281
    3   0.0004273   0.0016872  -0.0011034   0.0126642
 Max gradient component =       3.211E-02
 RMS gradient           =       1.166E-02
 Gradient time:  CPU 1.90 s  wall 1.92 s
 Geometry Optimization Parameters
   NAtoms,    NIC,     NZ,  NCons,   NDum,   NFix, NCnnct, MaxDiis
       16     111       0       1       0       0       0       0


** CONSTRAINED OPTIMIZATION IN DELOCALIZED INTERNAL COORDINATES **
   Searching for a Minimum

   Optimization Cycle:   1

                       Coordinates (Angstroms)
     ATOM                X               Y               Z
      1  S         0.0023888700    0.0607727500    0.0018326900
      2  C         1.7370761900    0.0331584900    0.0032322900
      3  H         2.2761273700    0.0528903200    0.9404255700
      4  C         2.2416920400   -0.0154620100   -1.2696579800
      5  H         3.3028578000   -0.0400536500   -1.4897249600
      6  C         1.2247922200   -0.0161296800   -2.2681146400
      7  H         1.4267479000   -0.0265098700   -3.3333450100
      8  C        -0.0539377100    0.0288038800   -1.7517096600
      9  C        -1.3245081500    0.0488998800   -2.4563634200
     10  C        -2.3183719200    1.0056786100   -2.4272484300
     11  H        -2.2397720400    1.9160129500   -1.8433550100
     12  C        -3.4319773900    0.6944412400   -3.2602543600
     13  H        -4.3008458500    1.3334170500   -3.3692138500
     14  C        -3.2843036000   -0.4958037400   -3.9225560300
     15  H        -3.9646254000   -0.9672910400   -4.6185037600
     16  S        -1.7826219900   -1.2672697700   -3.5233971500
   Point Group: c1    Number of degrees of freedom:    42


   Energy is  -1104.549243107

              Constraints and their Current Values
                                        Value     Constraint
   Dihedral:        6   8   9  10     -120.000     -120.000

 Attempting to Generate Delocalized Internal Coordinates

 41 Hessian modes will be used to form the next step
  Hessian Eigenvalues:
     0.045000    0.045000    0.045000    0.045000    0.045000    0.045000
     0.045002    0.045002    0.045003    0.045004    0.045011    0.045012
     0.159943    0.159949    0.159991    0.159992    0.160000    0.160000
     0.221282    0.221282    0.237835    0.237839    0.250000    0.250000
     0.294264    0.294663    0.312518    0.312618    0.354736    0.354850
     0.355125    0.355132    0.358226    0.358329    0.378510    0.404854
     0.404909    0.463547    0.463616    0.497922    0.497945

 Minimum Search - Taking Simple RFO Step
 Searching for Lamda that Minimizes Along All modes
 Value Taken    Lamda =  -0.01239497
 Step Taken.  Stepsize is  0.292104

                             Maximum     Tolerance    Cnvgd?
         Gradient           0.029731      0.000300      NO
         Displacement       0.147904      0.001200      NO
         Energy change     *********      0.000001      NO


 New Cartesian Coordinates Obtained by Inverse Iteration

 Displacement from previous Coordinates is:  0.533178
 ----------------------------------------------------------------
             Standard Nuclear Orientation (Angstroms)
    I     Atom           X                Y                Z
 ----------------------------------------------------------------
    1      S      -0.0330625610     0.1199114853     0.0271762652
    2      C       1.6958506704     0.0777348602    -0.0222943497
    3      H       2.2482980264     0.1243880577     0.9084597444
    4      C       2.2145658325    -0.0054224796    -1.3103663149
    5      H       3.2745678662    -0.0181358880    -1.5352031981
    6      C       1.2096637243    -0.0720214635    -2.2834732593
    7      H       1.3992501161    -0.1198335273    -3.3501220806
    8      C      -0.0785895336    -0.0258316591    -1.7286534028
    9      C      -1.3332822628    -0.0051426527    -2.4234382591
   10      C      -2.3258461728     0.9855769579    -2.3719866658
   11      H      -2.2517766292     1.8742149373    -1.7547856604
   12      C      -3.3945077537     0.7182412892    -3.2367294542
   13      H      -4.2558978905     1.3659143942    -3.3503583678
   14      C      -3.2236799568    -0.4746174925    -3.9317618926
   15      H      -3.9026609216    -0.9228578095    -4.6472072649
   16      S      -1.7321742137    -1.2765635996    -3.5772095493
 ----------------------------------------------------------------
 Nuclear Repulsion Energy =   628.6625853929 hartrees
 There are       43 alpha and       42 beta electrons
 Applying Cartesian multipole field
    Component          Value
    ---------          -----
     (2,0,0)        1.00000E-11
     (0,2,0)        2.00000E-11
     (0,0,2)       -3.00000E-11
 Nucleus-field energy     =    -0.0000000428 hartrees
 Requested basis set is 6-31++G(d,p)
 There are 76 shells and 234 basis functions
 A cutoff of  1.0D-12 yielded   2540 shell pairs
 There are     25058 function pairs

 Q-Chem warning in module /project/projectdirs/jcesr/qchem/qc44/cnl_qc441/compile/cori/qc_src/libqints/qchem/aobasis.C, line 68:

 Using reconstructed effective core potential

 Smallest overlap matrix eigenvalue = 8.70E-07
 Linear dependence detected in AO basis
 Number of orthogonalized atomic orbitals = 233
 Maximum deviation from orthogonality = 5.897E-11
 No. of orbitals has changed due to linear dependencies.  Generating new SCF guess.
 Guess from superposition of atomic densities
 Warning:  Energy on first SCF cycle will be non-variational
 An unrestricted hybrid HF-DFT SCF calculation will be
 performed using Pulay DIIS extrapolation
 Exchange:     0.2000 Hartree-Fock + 0.0800 Slater + 0.7200 B88
 Correlation:  0.1900 VWN1RPA + 0.8100 LYP
 Using SG-1 standard quadrature grid
 SCF converges when DIIS error is below 1.0E-08
 Geometry optimization detected.  Setting ReadMinima to 0
 Setting SaveMinima to 0
 Inaccurate integrated density:
   Number of electrons =    85
   Numerical integral  =    86.000243364250
   Relative error      =     1.1767568991 %
 ---------------------------------------
  Cycle       Energy         DIIS Error
 ---------------------------------------
    1   -1107.1132476324      4.38E-02
    2   -1104.4274712793      4.02E-03
    3   -1104.1611147807      6.87E-03
    4   -1104.5442999583      1.18E-03
    5   -1104.5517389043      6.94E-04
    6   -1104.5557478088      1.94E-04
    7   -1104.5560750433      8.35E-05
    8   -1104.5561571040      3.10E-05
    9   -1104.5561844375      1.63E-05
   10   -1104.5562072252      7.23E-06
   11   -1104.5562190439      3.65E-06
   12   -1104.5562211182      2.55E-06
   13   -1104.5562215923      9.38E-07
   14   -1104.5562216999      2.33E-07
   15   -1104.5562217081      1.03E-07
   16   -1104.5562217079      2.72E-08
   17   -1104.5562217086      1.51E-08
   18   -1104.5562217079      3.75E-09 Convergence criterion met
 ---------------------------------------
 <S^2> = 0.7635
 SCF time:  CPU 12.05 s  wall 11.57 s
 SCF   energy in the final basis set = -1104.5562217079
 Total energy in the final basis set = -1104.5562217079
 
 --------------------------------------------------------------
 
                    Orbital Energies (a.u.)
 --------------------------------------------------------------
 
 Alpha MOs
 -- Occupied --
-89.098 -89.098 -10.431 -10.431 -10.417 -10.417 -10.391 -10.391
-10.379 -10.379  -8.156  -8.156  -6.121  -6.121  -6.117  -6.117
 -6.113  -6.113  -1.084  -1.059  -0.955  -0.929  -0.921  -0.881
 -0.784  -0.751  -0.732  -0.712  -0.699  -0.647  -0.593  -0.592
 -0.586  -0.580  -0.577  -0.554  -0.550  -0.533  -0.527  -0.451
 -0.438  -0.436  -0.407
 -- Virtual --
 -0.233  -0.200  -0.160  -0.160  -0.133  -0.123  -0.119  -0.106
 -0.098  -0.095  -0.090  -0.086  -0.082  -0.076  -0.068  -0.058
 -0.045  -0.038  -0.033  -0.031  -0.018  -0.017  -0.013  -0.010
  0.002   0.003   0.007   0.010   0.014   0.014   0.021   0.023
  0.027   0.030   0.033   0.035   0.040   0.049   0.051   0.060
  0.065   0.070   0.076   0.078   0.083   0.095   0.101   0.109
  0.110   0.111   0.114   0.125   0.141   0.141   0.152   0.158
  0.172   0.177   0.195   0.211   0.223   0.232   0.236   0.254
  0.304   0.307   0.355   0.367   0.369   0.375   0.412   0.416
  0.439   0.452   0.462   0.479   0.485   0.499   0.511   0.539
  0.548   0.559   0.562   0.579   0.589   0.599   0.612   0.615
  0.638   0.640   0.660   0.665   0.705   0.738   0.763   0.770
  0.784   0.790   0.804   0.811   0.813   0.836   0.838   0.848
  0.851   0.860   0.911   0.912   0.915   0.932   0.953   0.977
  1.003   1.014   1.040   1.090   1.102   1.142   1.168   1.171
  1.178   1.187   1.210   1.278   1.284   1.308   1.356   1.364
  1.503   1.508   1.568   1.625   1.661   1.718   1.721   1.736
  1.743   1.794   1.828   1.837   1.859   1.898   1.914   1.936
  1.939   2.002   2.009   2.034   2.078   2.083   2.147   2.202
  2.203   2.252   2.254   2.280   2.298   2.321   2.327   2.336
  2.352   2.399   2.405   2.414   2.472   2.526   2.530   2.574
  2.671   2.671   2.714   2.742   2.976   3.009   3.104   3.108
  3.230   3.249   3.552   3.569   3.795   3.800   4.080   4.092
  4.129   4.148   4.243   4.337   4.486   4.534
 
 Beta MOs
 -- Occupied --
-89.098 -89.098 -10.429 -10.428 -10.413 -10.413 -10.389 -10.389
-10.379 -10.379  -8.157  -8.157  -6.121  -6.121  -6.117  -6.117
 -6.114  -6.114  -1.078  -1.054  -0.947  -0.927  -0.919  -0.871
 -0.779  -0.747  -0.727  -0.710  -0.697  -0.644  -0.589  -0.585
 -0.581  -0.578  -0.574  -0.544  -0.540  -0.532  -0.525  -0.436
 -0.433  -0.422
 -- Virtual --
 -0.341  -0.214  -0.184  -0.156  -0.156  -0.126  -0.119  -0.111
 -0.104  -0.098  -0.093  -0.089  -0.086  -0.080  -0.073  -0.068
 -0.057  -0.044  -0.037  -0.032  -0.030  -0.018  -0.016  -0.013
 -0.010   0.003   0.003   0.008   0.011   0.015   0.017   0.022
  0.024   0.028   0.031   0.034   0.036   0.042   0.050   0.052
  0.061   0.065   0.071   0.078   0.080   0.084   0.096   0.102
  0.110   0.111   0.112   0.117   0.126   0.141   0.142   0.153
  0.160   0.173   0.179   0.197   0.213   0.225   0.233   0.239
  0.257   0.305   0.309   0.357   0.369   0.370   0.375   0.413
  0.419   0.440   0.454   0.463   0.485   0.497   0.504   0.520
  0.541   0.552   0.560   0.564   0.580   0.592   0.602   0.617
  0.621   0.642   0.642   0.665   0.671   0.708   0.739   0.768
  0.773   0.787   0.792   0.806   0.814   0.815   0.838   0.840
  0.851   0.852   0.862   0.912   0.914   0.917   0.935   0.954
  0.980   1.008   1.018   1.045   1.092   1.105   1.144   1.175
  1.180   1.182   1.194   1.214   1.283   1.289   1.313   1.364
  1.372   1.516   1.522   1.576   1.631   1.666   1.723   1.723
  1.740   1.747   1.798   1.833   1.841   1.864   1.902   1.920
  1.945   1.949   2.013   2.017   2.045   2.084   2.089   2.152
  2.205   2.206   2.256   2.258   2.287   2.300   2.325   2.332
  2.340   2.356   2.404   2.409   2.418   2.476   2.530   2.534
  2.580   2.674   2.674   2.716   2.744   2.977   3.010   3.105
  3.108   3.232   3.251   3.554   3.571   3.795   3.800   4.087
  4.099   4.132   4.151   4.250   4.345   4.489   4.538
 --------------------------------------------------------------
 
          Ground-State Mulliken Net Atomic Charges

     Atom                 Charge (a.u.)    Spin (a.u.)
  --------------------------------------------------------
      1 S                     0.158033      -0.052416
      2 C                     0.085947       0.310623
      3 H                     0.247400      -0.014754
      4 C                    -0.373930      -0.018741
      5 H                     0.172970       0.000446
      6 C                     0.299591       0.127860
      7 H                     0.181336      -0.007352
      8 C                    -0.271023       0.154490
      9 C                    -0.270422       0.153829
     10 C                     0.297333       0.128170
     11 H                     0.181444      -0.007330
     12 C                    -0.372728      -0.018722
     13 H                     0.172994       0.000445
     14 C                     0.084787       0.310462
     15 H                     0.247315      -0.014753
     16 S                     0.158953      -0.052257
  --------------------------------------------------------
  Sum of atomic charges =     1.000000
  Sum of spin   charges =     1.000000

 -----------------------------------------------------------------
                    Cartesian Multipole Moments
 -----------------------------------------------------------------
    Charge (ESU x 10^10)
                 4.8032
    Dipole Moment (Debye)
         X      -3.2565      Y       0.3604      Z     -10.2010
       Tot      10.7142
    Quadrupole Moments (Debye-Ang)
        XX     -32.8478     XY      -1.8210     YY     -66.6378
        XZ      24.0321     YZ       3.3845     ZZ     -29.9553
    Octopole Moments (Debye-Ang^2)
       XXX      88.4654    XXY      14.9222    XYY      33.9992
       YYY      22.7958    XXZ      30.1118    XYZ      -3.9669
       YYZ     129.0362    XZZ     -42.2538    YZZ     -15.8749
       ZZZ     281.9633
    Hexadecapole Moments (Debye-Ang^3)
      XXXX   -1219.8033   XXXY     -56.4563   XXYY    -285.5124
      XYYY     -32.0570   YYYY    -266.9795   XXXZ    -335.1724
      XXYZ     -33.4729   XYYZ    -182.6337   YYYZ    -120.3086
      XXZZ    -277.5361   XYZZ      46.2702   YYZZ    -445.4755
      XZZZ    -284.8461   YZZZ      -1.3076   ZZZZ   -2102.9417
 -----------------------------------------------------------------
 Calculating analytic gradient of the SCF energy
 Gradient of SCF Energy
            1           2           3           4           5           6
    1  -0.0078056   0.0026976  -0.0009833   0.0012993  -0.0000874  -0.0057885
    2  -0.0041177  -0.0027870   0.0018098  -0.0001435  -0.0009045   0.0093707
    3   0.0039202  -0.0055724   0.0001251   0.0037303  -0.0014148  -0.0023376
            7           8           9          10          11          12
    1   0.0014756   0.0127191  -0.0135861   0.0097505  -0.0009634  -0.0021104
    2   0.0006121  -0.0052660   0.0025935   0.0033801   0.0010402  -0.0023185
    3  -0.0001400   0.0010271   0.0004526  -0.0044819  -0.0007093  -0.0024159
           13          14          15          16
    1   0.0000013  -0.0021823   0.0016362   0.0039274
    2   0.0006571   0.0042895   0.0002651  -0.0084809
    3   0.0015315   0.0047798  -0.0012271   0.0027324
 Max gradient component =       1.359E-02
 RMS gradient           =       4.486E-03
 Gradient time:  CPU 1.89 s  wall 1.90 s
 Geometry Optimization Parameters
   NAtoms,    NIC,     NZ,  NCons,   NDum,   NFix, NCnnct, MaxDiis
       16     111       0       1       0       0       0       0

 Cartesian Hessian Update
 Hessian Updated using BFGS Update


** CONSTRAINED OPTIMIZATION IN DELOCALIZED INTERNAL COORDINATES **
   Searching for a Minimum

   Optimization Cycle:   2

                       Coordinates (Angstroms)
     ATOM                X               Y               Z
      1  S        -0.0330625610    0.1199114853    0.0271762652
      2  C         1.6958506704    0.0777348602   -0.0222943497
      3  H         2.2482980264    0.1243880577    0.9084597444
      4  C         2.2145658325   -0.0054224796   -1.3103663149
      5  H         3.2745678662   -0.0181358880   -1.5352031981
      6  C         1.2096637243   -0.0720214635   -2.2834732593
      7  H         1.3992501161   -0.1198335273   -3.3501220806
      8  C        -0.0785895336   -0.0258316591   -1.7286534028
      9  C        -1.3332822628   -0.0051426527   -2.4234382591
     10  C        -2.3258461728    0.9855769579   -2.3719866658
     11  H        -2.2517766292    1.8742149373   -1.7547856604
     12  C        -3.3945077537    0.7182412892   -3.2367294542
     13  H        -4.2558978905    1.3659143942   -3.3503583678
     14  C        -3.2236799568   -0.4746174925   -3.9317618926
     15  H        -3.9026609216   -0.9228578095   -4.6472072649
     16  S        -1.7321742137   -1.2765635996   -3.5772095493
   Point Group: c1    Number of degrees of freedom:    42


   Energy is  -1104.556221708

              Constraints and their Current Values
                                        Value     Constraint
   Dihedral:        6   8   9  10     -120.000     -120.000
 Hessian Updated using BFGS Update

 40 Hessian modes will be used to form the next step
  Hessian Eigenvalues:
     0.032718    0.045000    0.045000    0.045000    0.045000    0.045002
     0.045002    0.045004    0.045011    0.045012    0.045638    0.159861
     0.159947    0.159960    0.159992    0.160000    0.160496    0.221282
     0.222169    0.237837    0.248923    0.250000    0.284234    0.294452
     0.297347    0.312501    0.312692    0.354711    0.354834    0.355105
     0.355129    0.358212    0.358320    0.376815    0.404881    0.427434
     0.457239    0.463582    0.497931    0.509460

 Minimum Search - Taking Simple RFO Step
 Searching for Lamda that Minimizes Along All modes
 Value Taken    Lamda =  -0.00387990
 Step Taken.  Stepsize is  0.293741

                             Maximum     Tolerance    Cnvgd?
         Gradient           0.008293      0.000300      NO
         Displacement       0.170157      0.001200      NO
         Energy change     -0.006979      0.000001      NO


 New Cartesian Coordinates Obtained by Inverse Iteration

 Displacement from previous Coordinates is:  0.623830
 ----------------------------------------------------------------
             Standard Nuclear Orientation (Angstroms)
    I     Atom           X                Y                Z
 ----------------------------------------------------------------
    1      S      -0.0120139126     0.1820673187     0.0388081903
    2      C       1.7084045332     0.1485181460    -0.0277854283
    3      H       2.2808355063     0.2387361588     0.8887857107
    4      C       2.2071634629     0.0023284313    -1.3253399548
    5      H       3.2649076320     0.0022073653    -1.5587914683
    6      C       1.1931330029    -0.1445552187    -2.2717104629
    7      H       1.3599414460    -0.2453010226    -3.3378912188
    8      C      -0.1001033444    -0.0944330941    -1.7014003340
    9      C      -1.3517399282    -0.0671000009    -2.3826932058
   10      C      -2.3461479427     0.9363546002    -2.3192773244
   11      H      -2.2756276375     1.7904924475    -1.6557628063
   12      C      -3.3810666647     0.7298847537    -3.2313111008
   13      H      -4.2327861945     1.3889722364    -3.3476793919
   14      C      -3.2022867827    -0.4329417845    -3.9860763671
   15      H      -3.8761817498    -0.8414731278    -4.7310739837
   16      S      -1.7257130860    -1.2482017993    -3.6387545636
 ----------------------------------------------------------------
 Nuclear Repulsion Energy =   628.3507850288 hartrees
 There are       43 alpha and       42 beta electrons
 Applying Cartesian multipole field
    Component          Value
    ---------          -----
     (2,0,0)        1.00000E-11
     (0,2,0)        2.00000E-11
     (0,0,2)       -3.00000E-11
 Nucleus-field energy     =    -0.0000000436 hartrees
 Requested basis set is 6-31++G(d,p)
 There are 76 shells and 234 basis functions
 A cutoff of  1.0D-12 yielded   2540 shell pairs
 There are     25058 function pairs

 Q-Chem warning in module /project/projectdirs/jcesr/qchem/qc44/cnl_qc441/compile/cori/qc_src/libqints/qchem/aobasis.C, line 68:

 Using reconstructed effective core potential

 Smallest overlap matrix eigenvalue = 9.16E-07
 Linear dependence detected in AO basis
 Number of orthogonalized atomic orbitals = 233
 Maximum deviation from orthogonality = 4.698E-11
 Guess MOs from SCF MO coefficient file
 Reading MOs from coefficient file
 Size of previous SCF MO coefficient file: 109510 (expected); 109980 (actual). 

 Q-Chem warning in module /project/projectdirs/jcesr/qchem/qc44/cnl_qc441/compile/cori/qc_src/gesman/GuessMan.C, line 722:

 Inconsistent size for SCF MO coefficient file.  Please check basis and PURECART setting.

 Reading MOs from coefficient file
 An unrestricted hybrid HF-DFT SCF calculation will be
 performed using Pulay DIIS extrapolation
 Exchange:     0.2000 Hartree-Fock + 0.0800 Slater + 0.7200 B88
 Correlation:  0.1900 VWN1RPA + 0.8100 LYP
 Using SG-1 standard quadrature grid
 SCF converges when DIIS error is below 1.0E-08
 Geometry optimization detected.  Setting ReadMinima to 0
 Setting SaveMinima to 0
 ---------------------------------------
  Cycle       Energy         DIIS Error
 ---------------------------------------
    1   -1104.5328716292      2.27E-03
    2   -1104.5586188217      1.86E-04
    3   -1104.5583497006      2.93E-04
    4   -1104.5589996211      7.74E-05
    5   -1104.5590407820      3.36E-05
    6   -1104.5590490100      1.16E-05
    7   -1104.5590504128      3.29E-06
    8   -1104.5590505861      1.13E-06
    9   -1104.5590506463      5.18E-07
   10   -1104.5590506952      3.11E-07
   11   -1104.5590507120      2.19E-07
   12   -1104.5590507168      9.00E-08
   13   -1104.5590507173      4.34E-08
   14   -1104.5590507177      1.65E-08
   15   -1104.5590507175      4.98E-09 Convergence criterion met
 ---------------------------------------
 <S^2> = 0.7648
 SCF time:  CPU 10.27 s  wall 10.56 s
 SCF   energy in the final basis set = -1104.5590507175
 Total energy in the final basis set = -1104.5590507175
 
 --------------------------------------------------------------
 
                    Orbital Energies (a.u.)
 --------------------------------------------------------------
 
 Alpha MOs
 -- Occupied --
-89.098 -89.098 -10.432 -10.431 -10.417 -10.417 -10.392 -10.392
-10.379 -10.379  -8.157  -8.157  -6.121  -6.121  -6.117  -6.117
 -6.114  -6.114  -1.084  -1.059  -0.955  -0.930  -0.922  -0.880
 -0.785  -0.752  -0.730  -0.712  -0.698  -0.649  -0.594  -0.593
 -0.586  -0.579  -0.579  -0.555  -0.550  -0.533  -0.524  -0.456
 -0.437  -0.437  -0.402
 -- Virtual --
 -0.236  -0.198  -0.159  -0.158  -0.131  -0.123  -0.120  -0.108
 -0.098  -0.095  -0.090  -0.086  -0.081  -0.076  -0.069  -0.059
 -0.045  -0.038  -0.035  -0.028  -0.021  -0.018  -0.012  -0.009
  0.001   0.004   0.008   0.011   0.012   0.014   0.021   0.024
  0.026   0.029   0.034   0.036   0.042   0.048   0.050   0.059
  0.067   0.072   0.077   0.078   0.085   0.096   0.103   0.106
  0.109   0.112   0.113   0.122   0.138   0.145   0.152   0.154
  0.169   0.177   0.197   0.209   0.223   0.231   0.236   0.252
  0.300   0.306   0.356   0.368   0.375   0.378   0.410   0.411
  0.445   0.455   0.465   0.475   0.488   0.497   0.505   0.536
  0.539   0.557   0.562   0.574   0.587   0.596   0.610   0.615
  0.638   0.643   0.662   0.663   0.703   0.736   0.761   0.765
  0.787   0.793   0.807   0.811   0.818   0.837   0.842   0.844
  0.848   0.861   0.910   0.916   0.916   0.928   0.949   0.970
  1.003   1.011   1.045   1.091   1.092   1.145   1.166   1.169
  1.179   1.180   1.214   1.273   1.275   1.297   1.361   1.379
  1.500   1.511   1.551   1.635   1.656   1.716   1.723   1.732
  1.744   1.788   1.822   1.836   1.856   1.896   1.909   1.932
  1.944   1.997   2.006   2.032   2.073   2.075   2.153   2.202
  2.202   2.247   2.253   2.280   2.298   2.322   2.326   2.334
  2.354   2.399   2.406   2.416   2.473   2.524   2.525   2.572
  2.663   2.665   2.711   2.741   2.975   3.009   3.104   3.107
  3.228   3.243   3.549   3.566   3.796   3.799   4.081   4.090
  4.131   4.147   4.242   4.335   4.486   4.529
 
 Beta MOs
 -- Occupied --
-89.098 -89.098 -10.429 -10.429 -10.413 -10.413 -10.390 -10.390
-10.379 -10.379  -8.157  -8.157  -6.121  -6.121  -6.117  -6.117
 -6.114  -6.114  -1.078  -1.054  -0.948  -0.928  -0.919  -0.869
 -0.780  -0.748  -0.725  -0.709  -0.697  -0.645  -0.590  -0.586
 -0.581  -0.577  -0.576  -0.545  -0.540  -0.531  -0.523  -0.436
 -0.434  -0.426
 -- Virtual --
 -0.336  -0.217  -0.182  -0.155  -0.154  -0.126  -0.119  -0.111
 -0.105  -0.097  -0.093  -0.089  -0.086  -0.080  -0.074  -0.069
 -0.058  -0.044  -0.037  -0.034  -0.028  -0.020  -0.017  -0.011
 -0.009   0.002   0.005   0.009   0.012   0.015   0.015   0.022
  0.025   0.028   0.031   0.035   0.036   0.043   0.049   0.051
  0.060   0.067   0.073   0.079   0.080   0.086   0.097   0.103
  0.108   0.110   0.112   0.116   0.123   0.139   0.146   0.153
  0.155   0.170   0.179   0.199   0.210   0.225   0.233   0.239
  0.255   0.301   0.308   0.358   0.369   0.375   0.378   0.412
  0.412   0.446   0.456   0.466   0.481   0.500   0.501   0.515
  0.538   0.541   0.558   0.563   0.576   0.592   0.600   0.614
  0.622   0.643   0.645   0.666   0.669   0.706   0.738   0.766
  0.767   0.789   0.796   0.808   0.814   0.820   0.840   0.844
  0.846   0.849   0.863   0.911   0.917   0.918   0.931   0.950
  0.974   1.007   1.015   1.050   1.093   1.095   1.147   1.172
  1.177   1.184   1.186   1.218   1.279   1.280   1.304   1.367
  1.387   1.511   1.525   1.561   1.640   1.661   1.723   1.724
  1.734   1.747   1.791   1.827   1.841   1.861   1.902   1.914
  1.941   1.953   2.008   2.012   2.045   2.079   2.081   2.159
  2.205   2.205   2.250   2.260   2.286   2.299   2.326   2.331
  2.338   2.357   2.404   2.410   2.421   2.476   2.528   2.529
  2.578   2.666   2.668   2.712   2.744   2.976   3.010   3.104
  3.108   3.229   3.245   3.551   3.568   3.797   3.800   4.087
  4.097   4.134   4.149   4.248   4.342   4.489   4.533
 --------------------------------------------------------------
 
          Ground-State Mulliken Net Atomic Charges

     Atom                 Charge (a.u.)    Spin (a.u.)
  --------------------------------------------------------
      1 S                     0.155160      -0.052161
      2 C                     0.086266       0.318607
      3 H                     0.247733      -0.015531
      4 C                    -0.404054      -0.025210
      5 H                     0.171148       0.000995
      6 C                     0.271103       0.139068
      7 H                     0.178373      -0.008467
      8 C                    -0.205789       0.142778
      9 C                    -0.203694       0.142362
     10 C                     0.268976       0.139251
     11 H                     0.178431      -0.008446
     12 C                    -0.403382      -0.025181
     13 H                     0.171084       0.000991
     14 C                     0.084983       0.318498
     15 H                     0.247616      -0.015528
     16 S                     0.156047      -0.052028
  --------------------------------------------------------
  Sum of atomic charges =     1.000000
  Sum of spin   charges =     1.000000

 -----------------------------------------------------------------
                    Cartesian Multipole Moments
 -----------------------------------------------------------------
    Charge (ESU x 10^10)
                 4.8032
    Dipole Moment (Debye)
         X      -3.2254      Y       0.4605      Z     -10.2543
       Tot      10.7594
    Quadrupole Moments (Debye-Ang)
        XX     -33.0608     XY      -1.8921     YY     -67.0222
        XZ      24.2986     YZ       3.7665     ZZ     -29.1577
    Octopole Moments (Debye-Ang^2)
       XXX      89.7338    XXY      16.2614    XYY      35.2370
       YYY      21.3369    XXZ      30.8097    XYZ      -2.4983
       YYZ     130.9499    XZZ     -45.5090    YZZ     -16.9947
       ZZZ     275.5891
    Hexadecapole Moments (Debye-Ang^3)
      XXXX   -1222.9375   XXXY     -58.3309   XXYY    -286.5511
      XYYY     -31.5119   YYYY    -263.2062   XXXZ    -339.5943
      XXYZ     -39.2187   XYYZ    -188.3558   YYYZ    -128.2817
      XXZZ    -274.8464   XYZZ      42.3384   YYZZ    -453.6538
      XZZZ    -263.4336   YZZZ      -3.1042   ZZZZ   -2085.2400
 -----------------------------------------------------------------
 Calculating analytic gradient of the SCF energy
 Gradient of SCF Energy
            1           2           3           4           5           6
    1  -0.0028143  -0.0001065  -0.0000621   0.0005125  -0.0002028   0.0015941
    2  -0.0008349  -0.0027330   0.0007621   0.0006531  -0.0004008   0.0092399
    3   0.0020088   0.0007309   0.0005563  -0.0024519  -0.0004211  -0.0019453
            7           8           9          10          11          12
    1   0.0005224   0.0028180  -0.0065504   0.0032617  -0.0001041   0.0004066
    2   0.0008102  -0.0090884  -0.0024649   0.0063728   0.0004907   0.0023874
    3   0.0001096  -0.0002596   0.0064522  -0.0064526  -0.0007635   0.0007938
           13          14          15          16
    1   0.0000876  -0.0012683   0.0002529   0.0016526
    2   0.0000666  -0.0017901  -0.0001174  -0.0033531
    3   0.0006057   0.0017254  -0.0008918   0.0002032
 Max gradient component =       9.240E-03
 RMS gradient           =       2.978E-03
 Gradient time:  CPU 1.89 s  wall 1.95 s
 Geometry Optimization Parameters
   NAtoms,    NIC,     NZ,  NCons,   NDum,   NFix, NCnnct, MaxDiis
       16     111       0       1       0       0       0       0

 Cartesian Hessian Update
 Hessian Updated using BFGS Update


** CONSTRAINED OPTIMIZATION IN DELOCALIZED INTERNAL COORDINATES **
   Searching for a Minimum

   Optimization Cycle:   3

                       Coordinates (Angstroms)
     ATOM                X               Y               Z
      1  S        -0.0120139126    0.1820673187    0.0388081903
      2  C         1.7084045332    0.1485181460   -0.0277854283
      3  H         2.2808355063    0.2387361588    0.8887857107
      4  C         2.2071634629    0.0023284313   -1.3253399548
      5  H         3.2649076320    0.0022073653   -1.5587914683
      6  C         1.1931330029   -0.1445552187   -2.2717104629
      7  H         1.3599414460   -0.2453010226   -3.3378912188
      8  C        -0.1001033444   -0.0944330941   -1.7014003340
      9  C        -1.3517399282   -0.0671000009   -2.3826932058
     10  C        -2.3461479427    0.9363546002   -2.3192773244
     11  H        -2.2756276375    1.7904924475   -1.6557628063
     12  C        -3.3810666647    0.7298847537   -3.2313111008
     13  H        -4.2327861945    1.3889722364   -3.3476793919
     14  C        -3.2022867827   -0.4329417845   -3.9860763671
     15  H        -3.8761817498   -0.8414731278   -4.7310739837
     16  S        -1.7257130860   -1.2482017993   -3.6387545636
   Point Group: c1    Number of degrees of freedom:    42


   Energy is  -1104.559050717

              Constraints and their Current Values
                                        Value     Constraint
   Dihedral:        6   8   9  10     -120.000     -120.000
 Hessian Updated using BFGS Update

 41 Hessian modes will be used to form the next step
  Hessian Eigenvalues:
     0.017396    0.045000    0.045000    0.045000    0.045000    0.045002
     0.045002    0.045003    0.045009    0.045011    0.045012    0.049139
     0.159736    0.159947    0.159960    0.159992    0.160000    0.160386
     0.221282    0.222274    0.237836    0.249968    0.251135    0.286652
     0.294449    0.296779    0.310237    0.312570    0.354772    0.354950
     0.355129    0.355222    0.358273    0.358795    0.376840    0.404881
     0.425847    0.461355    0.463582    0.497933    0.522198

 Minimum Search - Taking Simple RFO Step
 Searching for Lamda that Minimizes Along All modes
 Value Taken    Lamda =  -0.00222424
 Calculated Step too Large.  Step scaled by  0.923261
 Step Taken.  Stepsize is  0.300000

                             Maximum     Tolerance    Cnvgd?
         Gradient           0.005274      0.000300      NO
         Displacement       0.214870      0.001200      NO
         Energy change     -0.002829      0.000001      NO


 New Cartesian Coordinates Obtained by Inverse Iteration

 Displacement from previous Coordinates is:  0.761778
 ----------------------------------------------------------------
             Standard Nuclear Orientation (Angstroms)
    I     Atom           X                Y                Z
 ----------------------------------------------------------------
    1      S      -0.0004690869     0.2298228484     0.0422223767
    2      C       1.7122953858     0.2401191197    -0.0518995680
    3      H       2.3018961271     0.3946079919     0.8442820351
    4      C       2.1922264241     0.0061083256    -1.3443058828
    5      H       3.2467673163     0.0203560443    -1.5917873954
    6      C       1.1679613912    -0.2297163010    -2.2568123428
    7      H       1.3139336112    -0.3956720371    -3.3180229406
    8      C      -0.1229702733    -0.1746466756    -1.6709777068
    9      C      -1.3742864215    -0.1381265915    -2.3355109991
   10      C      -2.3644298741     0.8745992478    -2.2565442440
   11      H      -2.3049798728     1.6862108889    -1.5405032439
   12      C      -3.3618228826     0.7395441201    -3.2180235150
   13      H      -4.2008546955     1.4148005231    -3.3343335304
   14      C      -3.1608878919    -0.3713857912    -4.0431724678
   15      H      -3.8173020789    -0.7273168802    -4.8287957579
   16      S      -1.7163588381    -1.2237494230    -3.6837685274
 ----------------------------------------------------------------
 Nuclear Repulsion Energy =   629.3324884904 hartrees
 There are       43 alpha and       42 beta electrons
 Applying Cartesian multipole field
    Component          Value
    ---------          -----
     (2,0,0)        1.00000E-11
     (0,2,0)        2.00000E-11
     (0,0,2)       -3.00000E-11
 Nucleus-field energy     =    -0.0000000443 hartrees
 Requested basis set is 6-31++G(d,p)
 There are 76 shells and 234 basis functions
 A cutoff of  1.0D-12 yielded   2542 shell pairs
 There are     25082 function pairs

 Q-Chem warning in module /project/projectdirs/jcesr/qchem/qc44/cnl_qc441/compile/cori/qc_src/libqints/qchem/aobasis.C, line 68:

 Using reconstructed effective core potential

 Smallest overlap matrix eigenvalue = 1.19E-06
 No. of orbitals has changed due to linear dependencies.  Generating new SCF guess.
 Guess from superposition of atomic densities
 Warning:  Energy on first SCF cycle will be non-variational
 An unrestricted hybrid HF-DFT SCF calculation will be
 performed using Pulay DIIS extrapolation
 Exchange:     0.2000 Hartree-Fock + 0.0800 Slater + 0.7200 B88
 Correlation:  0.1900 VWN1RPA + 0.8100 LYP
 Using SG-1 standard quadrature grid
 SCF converges when DIIS error is below 1.0E-08
 Geometry optimization detected.  Setting ReadMinima to 0
 Setting SaveMinima to 0
 Inaccurate integrated density:
   Number of electrons =    85
   Numerical integral  =    85.999965883041
   Relative error      =     1.1764304506 %
 ---------------------------------------
  Cycle       Energy         DIIS Error
 ---------------------------------------
    1   -1107.1279769192      4.37E-02
    2   -1104.4342146555      3.96E-03
    3   -1104.1910540352      6.63E-03
    4   -1104.5501052557      1.09E-03
    5   -1104.5563214875      6.64E-04
    6   -1104.5600003721      1.70E-04
    7   -1104.5602756656      5.76E-05
    8   -1104.5603328635      1.53E-05
    9   -1104.5603562557      1.10E-05
   10   -1104.5603705199      6.51E-06
   11   -1104.5603776148      3.39E-06
   12   -1104.5603792757      2.13E-06
   13   -1104.5603795251      7.94E-07
   14   -1104.5603795802      2.08E-07
   15   -1104.5603795838      9.53E-08
   16   -1104.5603795840      3.00E-08
   17   -1104.5603795845      1.25E-08
   18   -1104.5603795844      4.81E-09 Convergence criterion met
 ---------------------------------------
 <S^2> = 0.7655
 SCF time:  CPU 12.13 s  wall 11.60 s
 SCF   energy in the final basis set = -1104.5603795844
 Total energy in the final basis set = -1104.5603795844
 
 --------------------------------------------------------------
 
                    Orbital Energies (a.u.)
 --------------------------------------------------------------
 
 Alpha MOs
 -- Occupied --
-89.098 -89.098 -10.432 -10.432 -10.417 -10.417 -10.393 -10.393
-10.379 -10.379  -8.157  -8.157  -6.121  -6.121  -6.117  -6.117
 -6.114  -6.114  -1.085  -1.060  -0.957  -0.931  -0.922  -0.880
 -0.787  -0.754  -0.729  -0.712  -0.699  -0.650  -0.596  -0.594
 -0.587  -0.581  -0.579  -0.556  -0.551  -0.533  -0.522  -0.460
 -0.438  -0.437  -0.400
 -- Virtual --
 -0.239  -0.195  -0.158  -0.157  -0.132  -0.123  -0.120  -0.110
 -0.098  -0.096  -0.090  -0.086  -0.082  -0.076  -0.070  -0.060
 -0.045  -0.037  -0.037  -0.026  -0.024  -0.018  -0.009  -0.008
 -0.000   0.003   0.008   0.009   0.012   0.014   0.021   0.024
  0.026   0.028   0.034   0.038   0.043   0.044   0.049   0.058
  0.068   0.071   0.078   0.078   0.089   0.096   0.103   0.103
  0.106   0.113   0.113   0.122   0.137   0.147   0.150   0.155
  0.167   0.175   0.186   0.198   0.207   0.222   0.232   0.237
  0.268   0.302   0.307   0.357   0.365   0.381   0.386   0.404
  0.411   0.447   0.455   0.468   0.469   0.495   0.496   0.502
  0.529   0.538   0.557   0.560   0.574   0.591   0.594   0.612
  0.615   0.638   0.651   0.662   0.664   0.702   0.742   0.761
  0.766   0.784   0.801   0.812   0.820   0.828   0.830   0.844
  0.849   0.864   0.865   0.906   0.916   0.921   0.928   0.945
  0.979   1.007   1.016   1.053   1.083   1.095   1.148   1.164
  1.165   1.173   1.179   1.212   1.261   1.271   1.303   1.356
  1.407   1.488   1.515   1.542   1.644   1.655   1.710   1.727
  1.733   1.748   1.785   1.817   1.838   1.850   1.893   1.904
  1.933   1.955   1.992   1.997   2.038   2.066   2.075   2.159
  2.201   2.203   2.241   2.258   2.281   2.300   2.320   2.326
  2.344   2.355   2.400   2.407   2.425   2.476   2.521   2.525
  2.571   2.660   2.663   2.714   2.744   2.976   3.010   3.107
  3.108   3.227   3.241   3.548   3.567   3.798   3.801   4.082
  4.092   4.135   4.147   4.239   4.340   4.487   4.526
 
 Beta MOs
 -- Occupied --
-89.098 -89.098 -10.430 -10.429 -10.413 -10.413 -10.391 -10.391
-10.379 -10.379  -8.157  -8.157  -6.121  -6.121  -6.117  -6.117
 -6.114  -6.114  -1.080  -1.055  -0.950  -0.929  -0.920  -0.870
 -0.782  -0.750  -0.724  -0.709  -0.697  -0.647  -0.592  -0.588
 -0.583  -0.576  -0.576  -0.546  -0.540  -0.531  -0.521  -0.437
 -0.435  -0.430
 -- Virtual --
 -0.334  -0.219  -0.179  -0.154  -0.153  -0.126  -0.118  -0.111
 -0.107  -0.098  -0.094  -0.089  -0.086  -0.081  -0.074  -0.069
 -0.060  -0.044  -0.036  -0.035  -0.025  -0.023  -0.017  -0.008
 -0.008   0.001   0.003   0.008   0.011   0.014   0.015   0.022
  0.025   0.028   0.030   0.034   0.039   0.044   0.045   0.050
  0.059   0.069   0.072   0.080   0.080   0.090   0.097   0.103
  0.105   0.107   0.114   0.116   0.123   0.137   0.149   0.151
  0.156   0.168   0.177   0.188   0.200   0.209   0.224   0.233
  0.240   0.270   0.303   0.309   0.359   0.366   0.381   0.387
  0.406   0.413   0.448   0.457   0.470   0.475   0.500   0.507
  0.512   0.531   0.541   0.559   0.561   0.577   0.596   0.599
  0.615   0.620   0.643   0.653   0.667   0.669   0.704   0.744
  0.763   0.771   0.786   0.805   0.814   0.822   0.832   0.833
  0.846   0.851   0.865   0.866   0.908   0.918   0.922   0.930
  0.946   0.984   1.011   1.020   1.058   1.086   1.098   1.150
  1.170   1.171   1.181   1.186   1.215   1.268   1.276   1.310
  1.362   1.414   1.498   1.529   1.553   1.648   1.660   1.719
  1.729   1.735   1.751   1.787   1.822   1.843   1.855   1.901
  1.909   1.943   1.964   1.997   2.008   2.051   2.072   2.081
  2.165   2.205   2.206   2.244   2.264   2.286   2.301   2.325
  2.331   2.348   2.358   2.405   2.412   2.430   2.479   2.525
  2.529   2.576   2.663   2.665   2.716   2.747   2.977   3.011
  3.107   3.109   3.228   3.243   3.550   3.569   3.799   3.801
  4.088   4.099   4.139   4.150   4.246   4.347   4.490   4.529
 --------------------------------------------------------------
 
          Ground-State Mulliken Net Atomic Charges

     Atom                 Charge (a.u.)    Spin (a.u.)
  --------------------------------------------------------
      1 S                     0.148878      -0.052405
      2 C                     0.093454       0.322611
      3 H                     0.249179      -0.016294
      4 C                    -0.390462      -0.031211
      5 H                     0.170476       0.001282
      6 C                     0.205902       0.151959
      7 H                     0.173987      -0.009029
      8 C                    -0.149570       0.133961
      9 C                    -0.151245       0.132377
     10 C                     0.203095       0.151676
     11 H                     0.173827      -0.008981
     12 C                    -0.390292      -0.031057
     13 H                     0.170340       0.001278
     14 C                     0.093204       0.322208
     15 H                     0.249189      -0.016293
     16 S                     0.150037      -0.052082
  --------------------------------------------------------
  Sum of atomic charges =     1.000000
  Sum of spin   charges =     1.000000

 -----------------------------------------------------------------
                    Cartesian Multipole Moments
 -----------------------------------------------------------------
    Charge (ESU x 10^10)
                 4.8032
    Dipole Moment (Debye)
         X      -3.1906      Y       0.5723      Z     -10.3141
       Tot      10.8115
    Quadrupole Moments (Debye-Ang)
        XX     -33.5298     XY      -1.9985     YY     -67.3015
        XZ      24.2773     YZ       4.0449     ZZ     -28.5097
    Octopole Moments (Debye-Ang^2)
       XXX      92.3871    XXY      18.6991    XYY      36.9361
       YYY      20.5326    XXZ      32.4514    XYZ      -0.1557
       YYZ     132.7717    XZZ     -48.0638    YZZ     -16.9319
       ZZZ     268.8305
    Hexadecapole Moments (Debye-Ang^3)
      XXXX   -1224.5784   XXXY     -62.6909   XXYY    -286.3342
      XYYY     -30.9666   YYYY    -260.8736   XXXZ    -347.7070
      XXYZ     -47.8476   XYYZ    -193.4388   YYYZ    -135.8679
      XXZZ    -274.2821   XYZZ      34.1414   YYZZ    -460.7039
      XZZZ    -239.1484   YZZZ     -10.0023   ZZZZ   -2053.0838
 -----------------------------------------------------------------
 Calculating analytic gradient of the SCF energy
 Gradient of SCF Energy
            1           2           3           4           5           6
    1   0.0006911  -0.0014806   0.0001006  -0.0006109   0.0000302   0.0039587
    2   0.0002052  -0.0003677  -0.0001790  -0.0002386   0.0000466   0.0100195
    3  -0.0005506   0.0021219   0.0000608  -0.0033098   0.0002748   0.0000107
            7           8           9          10          11          12
    1  -0.0003188  -0.0022573  -0.0029844   0.0011815   0.0006092   0.0012033
    2   0.0007310  -0.0126830  -0.0042411   0.0062741   0.0002274   0.0021202
    3  -0.0000619  -0.0031209   0.0122330  -0.0087026  -0.0004632   0.0022326
           13          14          15          16
    1  -0.0000744   0.0005706  -0.0002218  -0.0003969
    2  -0.0001760  -0.0025263  -0.0000868   0.0008745
    3  -0.0001967  -0.0005609   0.0000702  -0.0000374
 Max gradient component =       1.268E-02
 RMS gradient           =       3.606E-03
 Gradient time:  CPU 1.89 s  wall 1.90 s
 Geometry Optimization Parameters
   NAtoms,    NIC,     NZ,  NCons,   NDum,   NFix, NCnnct, MaxDiis
       16     111       0       1       0       0       0       0

 Cartesian Hessian Update
 Hessian Updated using BFGS Update


** CONSTRAINED OPTIMIZATION IN DELOCALIZED INTERNAL COORDINATES **
   Searching for a Minimum

   Optimization Cycle:   4

                       Coordinates (Angstroms)
     ATOM                X               Y               Z
      1  S        -0.0004690869    0.2298228484    0.0422223767
      2  C         1.7122953858    0.2401191197   -0.0518995680
      3  H         2.3018961271    0.3946079919    0.8442820351
      4  C         2.1922264241    0.0061083256   -1.3443058828
      5  H         3.2467673163    0.0203560443   -1.5917873954
      6  C         1.1679613912   -0.2297163010   -2.2568123428
      7  H         1.3139336112   -0.3956720371   -3.3180229406
      8  C        -0.1229702733   -0.1746466756   -1.6709777068
      9  C        -1.3742864215   -0.1381265915   -2.3355109991
     10  C        -2.3644298741    0.8745992478   -2.2565442440
     11  H        -2.3049798728    1.6862108889   -1.5405032439
     12  C        -3.3618228826    0.7395441201   -3.2180235150
     13  H        -4.2008546955    1.4148005231   -3.3343335304
     14  C        -3.1608878919   -0.3713857912   -4.0431724678
     15  H        -3.8173020789   -0.7273168802   -4.8287957579
     16  S        -1.7163588381   -1.2237494230   -3.6837685274
   Point Group: c1    Number of degrees of freedom:    42


   Energy is  -1104.560379584

              Constraints and their Current Values
                                        Value     Constraint
   Dihedral:        6   8   9  10     -120.000     -120.000
 Hessian Updated using BFGS Update

 41 Hessian modes will be used to form the next step
  Hessian Eigenvalues:
     0.015444    0.045000    0.045000    0.045000    0.045001    0.045002
     0.045002    0.045004    0.045011    0.045012    0.045357    0.048404
     0.159919    0.159946    0.159968    0.159992    0.160000    0.162128
     0.221283    0.222384    0.237853    0.250012    0.250410    0.288035
     0.294451    0.297199    0.312569    0.325355    0.354780    0.355001
     0.355129    0.355250    0.358271    0.358702    0.379704    0.404882
     0.423936    0.461936    0.463582    0.497934    0.507677

 Minimum Search - Taking Simple RFO Step
 Searching for Lamda that Minimizes Along All modes
 Value Taken    Lamda =  -0.00034760
 Step Taken.  Stepsize is  0.125178

                             Maximum     Tolerance    Cnvgd?
         Gradient           0.002880      0.000300      NO
         Displacement       0.097177      0.001200      NO
         Energy change     -0.001329      0.000001      NO


 New Cartesian Coordinates Obtained by Inverse Iteration

 Displacement from previous Coordinates is:  0.350375
 ----------------------------------------------------------------
             Standard Nuclear Orientation (Angstroms)
    I     Atom           X                Y                Z
 ----------------------------------------------------------------
    1      S       0.0031906334     0.2432758796     0.0450272535
    2      C       1.7143866363     0.2804750722    -0.0660914215
    3      H       2.3099260964     0.4694344427     0.8194137848
    4      C       2.1857698519     0.0077544203    -1.3521640319
    5      H       3.2376823313     0.0277357525    -1.6102625523
    6      C       1.1558938102    -0.2667109273    -2.2494176628
    7      H       1.2971558150    -0.4647045528    -3.3058981623
    8      C      -0.1307796756    -0.2092144655    -1.6568363361
    9      C      -1.3867779650    -0.1679886373    -2.3153350821
   10      C      -2.3728187853     0.8467868124    -2.2291136296
   11      H      -2.3248212326     1.6382634186    -1.4898443187
   12      C      -3.3536906901     0.7434113234    -3.2130592749
   13      H      -4.1853682206     1.4280888451    -3.3270687516
   14      C      -3.1408435172    -0.3413709228    -4.0666704390
   15      H      -3.7839860258    -0.6711745303    -4.8741895299
   16      S      -1.7142007223    -1.2185065210    -3.6964435557
 ----------------------------------------------------------------
 Nuclear Repulsion Energy =   629.5320069232 hartrees
 There are       43 alpha and       42 beta electrons
 Applying Cartesian multipole field
    Component          Value
    ---------          -----
     (2,0,0)        1.00000E-11
     (0,2,0)        2.00000E-11
     (0,0,2)       -3.00000E-11
 Nucleus-field energy     =    -0.0000000444 hartrees
 Requested basis set is 6-31++G(d,p)
 There are 76 shells and 234 basis functions
 A cutoff of  1.0D-12 yielded   2547 shell pairs
 There are     25097 function pairs

 Q-Chem warning in module /project/projectdirs/jcesr/qchem/qc44/cnl_qc441/compile/cori/qc_src/libqints/qchem/aobasis.C, line 68:

 Using reconstructed effective core potential

 Smallest overlap matrix eigenvalue = 1.42E-06
 Guess MOs from SCF MO coefficient file
 Reading MOs from coefficient file
 Reading MOs from coefficient file
 An unrestricted hybrid HF-DFT SCF calculation will be
 performed using Pulay DIIS extrapolation
 Exchange:     0.2000 Hartree-Fock + 0.0800 Slater + 0.7200 B88
 Correlation:  0.1900 VWN1RPA + 0.8100 LYP
 Using SG-1 standard quadrature grid
 SCF converges when DIIS error is below 1.0E-08
 Geometry optimization detected.  Setting ReadMinima to 0
 Setting SaveMinima to 0
 ---------------------------------------
  Cycle       Energy         DIIS Error
 ---------------------------------------
    1   -1104.5595436387      1.06E-03
    2   -1104.5603913356      1.36E-04
    3   -1104.5598971693      2.88E-04
    4   -1104.5605758700      3.40E-05
    5   -1104.5605829799      1.78E-05
    6   -1104.5605854142      4.27E-06
    7   -1104.5605855744      1.62E-06
    8   -1104.5605856006      4.36E-07
    9   -1104.5605856047      1.51E-07
   10   -1104.5605856072      7.24E-08
   11   -1104.5605856071      4.65E-08
   12   -1104.5605856073      2.42E-08
   13   -1104.5605856073      8.98E-09 Convergence criterion met
 ---------------------------------------
 <S^2> = 0.7655
 SCF time:  CPU 8.88 s  wall 8.49 s
 SCF   energy in the final basis set = -1104.5605856073
 Total energy in the final basis set = -1104.5605856073
 
 --------------------------------------------------------------
 
                    Orbital Energies (a.u.)
 --------------------------------------------------------------
 
 Alpha MOs
 -- Occupied --
-89.098 -89.097 -10.433 -10.432 -10.417 -10.417 -10.393 -10.393
-10.379 -10.379  -8.157  -8.156  -6.121  -6.121  -6.117  -6.117
 -6.114  -6.113  -1.086  -1.061  -0.958  -0.931  -0.921  -0.880
 -0.787  -0.755  -0.729  -0.712  -0.699  -0.650  -0.597  -0.594
 -0.587  -0.582  -0.579  -0.556  -0.551  -0.533  -0.522  -0.462
 -0.438  -0.437  -0.399
 -- Virtual --
 -0.240  -0.193  -0.158  -0.157  -0.132  -0.123  -0.120  -0.111
 -0.099  -0.096  -0.090  -0.086  -0.082  -0.076  -0.070  -0.060
 -0.045  -0.037  -0.036  -0.026  -0.024  -0.018  -0.009  -0.007
 -0.001   0.003   0.007   0.008   0.013   0.014   0.021   0.024
  0.027   0.027   0.034   0.039   0.043   0.043   0.048   0.057
  0.069   0.071   0.078   0.079   0.091   0.095   0.102   0.103
  0.105   0.113   0.114   0.122   0.136   0.145   0.151   0.156
  0.167   0.173   0.187   0.198   0.207   0.221   0.231   0.237
  0.264   0.302   0.308   0.357   0.363   0.382   0.389   0.405
  0.411   0.448   0.455   0.466   0.467   0.494   0.497   0.502
  0.523   0.538   0.557   0.559   0.573   0.591   0.592   0.612
  0.614   0.637   0.654   0.661   0.666   0.701   0.743   0.760
  0.765   0.782   0.802   0.814   0.819   0.824   0.828   0.845
  0.851   0.863   0.865   0.905   0.917   0.922   0.930   0.941
  0.979   1.004   1.011   1.056   1.080   1.097   1.147   1.162
  1.163   1.169   1.179   1.208   1.254   1.273   1.308   1.351
  1.414   1.482   1.515   1.540   1.646   1.657   1.707   1.726
  1.733   1.749   1.782   1.813   1.839   1.845   1.894   1.901
  1.935   1.958   1.984   1.996   2.040   2.062   2.077   2.159
  2.200   2.204   2.239   2.260   2.281   2.300   2.319   2.326
  2.346   2.354   2.400   2.408   2.426   2.477   2.518   2.524
  2.570   2.658   2.662   2.715   2.744   2.976   3.010   3.106
  3.108   3.226   3.241   3.547   3.566   3.799   3.800   4.081
  4.091   4.136   4.147   4.237   4.339   4.487   4.524
 
 Beta MOs
 -- Occupied --
-89.098 -89.098 -10.430 -10.430 -10.413 -10.413 -10.391 -10.391
-10.379 -10.379  -8.157  -8.157  -6.121  -6.121  -6.117  -6.117
 -6.114  -6.114  -1.080  -1.055  -0.950  -0.929  -0.919  -0.870
 -0.782  -0.750  -0.724  -0.709  -0.698  -0.648  -0.592  -0.589
 -0.583  -0.576  -0.576  -0.546  -0.540  -0.531  -0.520  -0.437
 -0.435  -0.431
 -- Virtual --
 -0.333  -0.220  -0.178  -0.154  -0.153  -0.126  -0.119  -0.111
 -0.108  -0.098  -0.094  -0.090  -0.085  -0.081  -0.074  -0.069
 -0.060  -0.044  -0.036  -0.035  -0.024  -0.024  -0.017  -0.007
 -0.007   0.000   0.003   0.009   0.010   0.014   0.015   0.022
  0.025   0.028   0.029   0.035   0.040   0.044   0.044   0.049
  0.058   0.069   0.073   0.080   0.080   0.092   0.096   0.102
  0.104   0.106   0.114   0.116   0.123   0.137   0.146   0.152
  0.158   0.168   0.175   0.189   0.200   0.209   0.223   0.232
  0.240   0.267   0.304   0.310   0.359   0.364   0.381   0.390
  0.406   0.413   0.449   0.456   0.469   0.473   0.500   0.505
  0.511   0.526   0.540   0.559   0.560   0.576   0.596   0.598
  0.616   0.618   0.643   0.656   0.666   0.670   0.704   0.744
  0.763   0.770   0.784   0.806   0.815   0.821   0.828   0.830
  0.846   0.853   0.864   0.866   0.907   0.919   0.923   0.931
  0.942   0.984   1.009   1.015   1.061   1.083   1.100   1.150
  1.167   1.168   1.177   1.186   1.211   1.260   1.278   1.316
  1.356   1.421   1.492   1.529   1.551   1.650   1.661   1.716
  1.728   1.735   1.752   1.785   1.819   1.844   1.850   1.901
  1.906   1.945   1.966   1.989   2.008   2.054   2.068   2.082
  2.165   2.204   2.207   2.242   2.267   2.285   2.301   2.324
  2.331   2.350   2.358   2.405   2.412   2.430   2.480   2.522
  2.528   2.576   2.661   2.664   2.716   2.746   2.977   3.011
  3.106   3.109   3.227   3.242   3.548   3.568   3.799   3.801
  4.087   4.098   4.140   4.150   4.244   4.346   4.490   4.528
 --------------------------------------------------------------
 
          Ground-State Mulliken Net Atomic Charges

     Atom                 Charge (a.u.)    Spin (a.u.)
  --------------------------------------------------------
      1 S                     0.149878      -0.053053
      2 C                     0.096593       0.321877
      3 H                     0.249906      -0.016293
      4 C                    -0.385780      -0.031771
      5 H                     0.170661       0.001251
      6 C                     0.172029       0.152359
      7 H                     0.171141      -0.009243
      8 C                    -0.122495       0.135558
      9 C                    -0.124874       0.134248
     10 C                     0.169676       0.152064
     11 H                     0.170909      -0.009195
     12 C                    -0.385616      -0.031676
     13 H                     0.170521       0.001250
     14 C                     0.096181       0.321721
     15 H                     0.249893      -0.016307
     16 S                     0.151377      -0.052789
  --------------------------------------------------------
  Sum of atomic charges =     1.000000
  Sum of spin   charges =     1.000000

 -----------------------------------------------------------------
                    Cartesian Multipole Moments
 -----------------------------------------------------------------
    Charge (ESU x 10^10)
                 4.8032
    Dipole Moment (Debye)
         X      -3.1762      Y       0.6203      Z     -10.3407
       Tot      10.8352
    Quadrupole Moments (Debye-Ang)
        XX     -33.7575     XY      -2.0707     YY     -67.3712
        XZ      24.1809     YZ       4.1297     ZZ     -28.2874
    Octopole Moments (Debye-Ang^2)
       XXX      93.8877    XXY      20.1094    XYY      37.7155
       YYY      20.5347    XXZ      33.2734    XYZ       1.0631
       YYZ     133.3451    XZZ     -48.8542    YZZ     -16.5435
       ZZZ     265.8781
    Hexadecapole Moments (Debye-Ang^3)
      XXXX   -1227.5892   XXXY     -65.5510   XXYY    -286.1480
      XYYY     -31.0464   YYYY    -261.0887   XXXZ    -353.0652
      XXYZ     -52.2813   XYYZ    -195.3045   YYYZ    -138.8479
      XXZZ    -274.8941   XYZZ      29.4502   YYZZ    -463.0393
      XZZZ    -229.2277   YZZZ     -14.4236   ZZZZ   -2036.1493
 -----------------------------------------------------------------
 Calculating analytic gradient of the SCF energy
 Gradient of SCF Energy
            1           2           3           4           5           6
    1   0.0009401  -0.0009448   0.0001344  -0.0002275   0.0000421   0.0024588
    2   0.0001796   0.0006051  -0.0003229  -0.0003615   0.0001482   0.0102669
    3  -0.0007498   0.0011013   0.0000096  -0.0013757   0.0002890   0.0001323
            7           8           9          10          11          12
    1  -0.0003599  -0.0001643  -0.0052504   0.0025164   0.0005484   0.0003568
    2   0.0004742  -0.0141020  -0.0032466   0.0056072   0.0001546   0.0007912
    3  -0.0001182  -0.0040310   0.0132236  -0.0085373  -0.0002475   0.0011422
           13          14          15          16
    1  -0.0000423   0.0008293  -0.0002688  -0.0005683
    2  -0.0001397  -0.0010697  -0.0001050   0.0011204
    3  -0.0002787  -0.0008323   0.0002258   0.0000467
 Max gradient component =       1.410E-02
 RMS gradient           =       3.718E-03
 Gradient time:  CPU 1.95 s  wall 1.90 s
 Geometry Optimization Parameters
   NAtoms,    NIC,     NZ,  NCons,   NDum,   NFix, NCnnct, MaxDiis
       16     111       0       1       0       0       0       0

 Cartesian Hessian Update
 Hessian Updated using BFGS Update


** CONSTRAINED OPTIMIZATION IN DELOCALIZED INTERNAL COORDINATES **
   Searching for a Minimum

   Optimization Cycle:   5

                       Coordinates (Angstroms)
     ATOM                X               Y               Z
      1  S         0.0031906334    0.2432758796    0.0450272535
      2  C         1.7143866363    0.2804750722   -0.0660914215
      3  H         2.3099260964    0.4694344427    0.8194137848
      4  C         2.1857698519    0.0077544203   -1.3521640319
      5  H         3.2376823313    0.0277357525   -1.6102625523
      6  C         1.1558938102   -0.2667109273   -2.2494176628
      7  H         1.2971558150   -0.4647045528   -3.3058981623
      8  C        -0.1307796756   -0.2092144655   -1.6568363361
      9  C        -1.3867779650   -0.1679886373   -2.3153350821
     10  C        -2.3728187853    0.8467868124   -2.2291136296
     11  H        -2.3248212326    1.6382634186   -1.4898443187
     12  C        -3.3536906901    0.7434113234   -3.2130592749
     13  H        -4.1853682206    1.4280888451   -3.3270687516
     14  C        -3.1408435172   -0.3413709228   -4.0666704390
     15  H        -3.7839860258   -0.6711745303   -4.8741895299
     16  S        -1.7142007223   -1.2185065210   -3.6964435557
   Point Group: c1    Number of degrees of freedom:    42


   Energy is  -1104.560585607

              Constraints and their Current Values
                                        Value     Constraint
   Dihedral:        6   8   9  10     -120.000     -120.000
 Hessian Updated using BFGS Update

 41 Hessian modes will be used to form the next step
  Hessian Eigenvalues:
     0.015981    0.043136    0.045000    0.045000    0.045000    0.045001
     0.045002    0.045002    0.045005    0.045011    0.045045    0.047379
     0.158837    0.159936    0.159948    0.159991    0.160000    0.160024
     0.221285    0.222359    0.237859    0.248529    0.250120    0.287702
     0.294455    0.297076    0.306664    0.312570    0.354761    0.354921
     0.355128    0.355163    0.358271    0.358680    0.378805    0.404887
     0.425545    0.453538    0.463583    0.487980    0.497937

 Minimum Search - Taking Simple RFO Step
 Searching for Lamda that Minimizes Along All modes
 Value Taken    Lamda =  -0.00005717
 Step Taken.  Stepsize is  0.032940

                             Maximum     Tolerance    Cnvgd?
         Gradient           0.001864      0.000300      NO
         Displacement       0.019929      0.001200      NO
         Energy change     -0.000206      0.000001      NO


 New Cartesian Coordinates Obtained by Inverse Iteration

 Displacement from previous Coordinates is:  0.073322
 ----------------------------------------------------------------
             Standard Nuclear Orientation (Angstroms)
    I     Atom           X                Y                Z
 ----------------------------------------------------------------
    1      S       0.0031145329     0.2433550004     0.0467561056
    2      C       1.7150744475     0.2870582194    -0.0694336328
    3      H       2.3110006255     0.4857369661     0.8136477026
    4      C       2.1841110673     0.0084319913    -1.3537252755
    5      H       3.2349981693     0.0283960564    -1.6160736912
    6      C       1.1524614992    -0.2725615056    -2.2484724886
    7      H       1.2952676250    -0.4797558651    -3.3029847034
    8      C      -0.1315183406    -0.2143421806    -1.6545876068
    9      C      -1.3893815612    -0.1718675120    -2.3116086684
   10      C      -2.3735344591     0.8420236602    -2.2239956066
   11      H      -2.3320824491     1.6285446899    -1.4790242145
   12      C      -3.3516258828     0.7440540344    -3.2127139551
   13      H      -4.1814853431     1.4312923283    -3.3247251689
   14      C      -3.1368514081    -0.3355814463    -4.0702965867
   15      H      -3.7747131434    -0.6592443965    -4.8844236473
   16      S      -1.7141170395    -1.2199846304    -3.6962922722
 ----------------------------------------------------------------
 Nuclear Repulsion Energy =   629.5466995421 hartrees
 There are       43 alpha and       42 beta electrons
[...]
    9   -1104.5606285113      4.02E-09 Convergence criterion met
 ---------------------------------------
 <S^2> = 0.7654
 SCF time:  CPU 5.84 s  wall 5.65 s
 SCF   energy in the final basis set = -1104.5606285113
 Total energy in the final basis set = -1104.5606285113
 
 --------------------------------------------------------------
 
                    Orbital Energies (a.u.)
 --------------------------------------------------------------
 
 Alpha MOs
 -- Occupied --
-89.097 -89.097 -10.433 -10.432 -10.417 -10.417 -10.393 -10.393
-10.379 -10.379  -8.156  -8.156  -6.121  -6.121  -6.117  -6.116
 -6.113  -6.113  -1.086  -1.060  -0.958  -0.931  -0.921  -0.881
 -0.787  -0.755  -0.729  -0.712  -0.699  -0.650  -0.596  -0.594
 -0.587  -0.582  -0.579  -0.556  -0.551  -0.533  -0.522  -0.462
 -0.438  -0.437  -0.400
 -- Virtual --
 -0.240  -0.193  -0.158  -0.157  -0.133  -0.123  -0.120  -0.111
 -0.099  -0.096  -0.090  -0.086  -0.082  -0.075  -0.070  -0.060
 -0.045  -0.037  -0.036  -0.025  -0.024  -0.018  -0.009  -0.007
 -0.001   0.003   0.007   0.008   0.013   0.013   0.021   0.024
  0.027   0.027   0.034   0.039   0.043   0.043   0.048   0.057
  0.069   0.071   0.078   0.079   0.091   0.094   0.102   0.103
  0.105   0.113   0.114   0.122   0.137   0.145   0.151   0.157
  0.167   0.173   0.187   0.198   0.207   0.221   0.231   0.237
  0.264   0.303   0.308   0.357   0.362   0.382   0.390   0.405
  0.411   0.448   0.454   0.466   0.467   0.494   0.497   0.501
  0.523   0.538   0.557   0.559   0.573   0.591   0.591   0.612
  0.614   0.638   0.655   0.661   0.666   0.701   0.743   0.760
  0.765   0.781   0.802   0.814   0.818   0.824   0.829   0.845
  0.851   0.863   0.865   0.905   0.917   0.921   0.930   0.940
  0.979   1.004   1.011   1.056   1.081   1.098   1.149   1.162
  1.162   1.167   1.178   1.209   1.252   1.272   1.312   1.347
  1.414   1.481   1.515   1.538   1.646   1.658   1.707   1.726
  1.733   1.748   1.783   1.813   1.839   1.845   1.895   1.902
  1.936   1.958   1.982   1.996   2.040   2.063   2.077   2.160
  2.200   2.204   2.239   2.261   2.281   2.300   2.319   2.326
  2.346   2.353   2.400   2.408   2.426   2.477   2.517   2.524
  2.571   2.659   2.662   2.715   2.744   2.976   3.010   3.106
  3.108   3.226   3.242   3.547   3.567   3.798   3.800   4.081
  4.091   4.136   4.147   4.237   4.340   4.487   4.524
 
 Beta MOs
 -- Occupied --
-89.098 -89.097 -10.431 -10.430 -10.413 -10.413 -10.391 -10.391
-10.379 -10.379  -8.157  -8.156  -6.121  -6.121  -6.117  -6.117
 -6.114  -6.114  -1.080  -1.055  -0.950  -0.929  -0.919  -0.870
 -0.782  -0.751  -0.724  -0.709  -0.698  -0.647  -0.592  -0.589
 -0.582  -0.577  -0.577  -0.546  -0.540  -0.531  -0.520  -0.437
 -0.435  -0.431
 -- Virtual --
 -0.334  -0.220  -0.177  -0.154  -0.153  -0.126  -0.119  -0.111
 -0.108  -0.098  -0.095  -0.090  -0.086  -0.081  -0.074  -0.070
 -0.060  -0.044  -0.036  -0.035  -0.024  -0.024  -0.017  -0.007
 -0.007  -0.000   0.003   0.009   0.009   0.014   0.015   0.022
  0.025   0.028   0.029   0.035   0.040   0.044   0.044   0.049
  0.058   0.069   0.073   0.080   0.080   0.093   0.096   0.102
  0.104   0.106   0.114   0.117   0.123   0.138   0.146   0.152
  0.159   0.168   0.175   0.189   0.200   0.209   0.223   0.232
  0.239   0.267   0.304   0.310   0.360   0.363   0.382   0.390
  0.406   0.412   0.449   0.455   0.468   0.473   0.501   0.505
  0.511   0.525   0.540   0.559   0.560   0.576   0.596   0.597
  0.616   0.618   0.643   0.657   0.666   0.670   0.703   0.745
  0.763   0.771   0.783   0.806   0.816   0.820   0.828   0.831
  0.846   0.853   0.865   0.866   0.906   0.919   0.922   0.932
  0.942   0.984   1.008   1.015   1.061   1.084   1.101   1.151
  1.166   1.168   1.176   1.185   1.212   1.259   1.277   1.320
  1.352   1.422   1.491   1.529   1.550   1.649   1.662   1.715
  1.728   1.735   1.752   1.785   1.818   1.844   1.850   1.903
  1.907   1.945   1.966   1.987   2.008   2.054   2.068   2.082
  2.166   2.204   2.207   2.242   2.268   2.285   2.301   2.324
  2.332   2.349   2.356   2.405   2.412   2.431   2.480   2.522
  2.528   2.577   2.662   2.665   2.717   2.747   2.978   3.012
  3.106   3.109   3.228   3.243   3.548   3.568   3.799   3.801
  4.087   4.098   4.140   4.150   4.243   4.347   4.490   4.528
 --------------------------------------------------------------
 
          Ground-State Mulliken Net Atomic Charges

     Atom                 Charge (a.u.)    Spin (a.u.)
  --------------------------------------------------------
      1 S                     0.149733      -0.052923
      2 C                     0.098264       0.320888
      3 H                     0.250181      -0.016200
      4 C                    -0.386274      -0.031770
      5 H                     0.170509       0.001177
      6 C                     0.165489       0.152828
      7 H                     0.170616      -0.009211
      8 C                    -0.115836       0.135623
      9 C                    -0.119719       0.134836
     10 C                     0.163676       0.152652
     11 H                     0.170442      -0.009181
     12 C                    -0.386367      -0.031799
     13 H                     0.170362       0.001179
     14 C                     0.097724       0.320887
     15 H                     0.250168      -0.016214
     16 S                     0.151034      -0.052773
  --------------------------------------------------------
  Sum of atomic charges =     1.000000
  Sum of spin   charges =     1.000000

 -----------------------------------------------------------------
                    Cartesian Multipole Moments
 -----------------------------------------------------------------
    Charge (ESU x 10^10)
                 4.8032
    Dipole Moment (Debye)
         X      -3.1739      Y       0.6265      Z     -10.3431
       Tot      10.8373
    Quadrupole Moments (Debye-Ang)
        XX     -33.8093     XY      -2.1183     YY     -67.3729
        XZ      24.1000     YZ       4.1645     ZZ     -28.2663
    Octopole Moments (Debye-Ang^2)
       XXX      94.2984    XXY      20.5272    XYY      37.8752
       YYY      20.5826    XXZ      33.5151    XYZ       1.4009
       YYZ     133.3667    XZZ     -48.7953    YZZ     -16.4809
       ZZZ     265.2736
    Hexadecapole Moments (Debye-Ang^3)
      XXXX   -1229.0933   XXXY     -66.7313   XXYY    -285.9770
      XYYY     -31.1315   YYYY    -261.5173   XXXZ    -355.2485
      XXYZ     -53.2951   XYYZ    -195.5629   YYYZ    -139.2337
      XXZZ    -275.4634   XYZZ      28.2527   YYZZ    -463.1581
      XZZZ    -227.5613   YZZZ     -15.1749   ZZZZ   -2031.5679
 -----------------------------------------------------------------
 Calculating analytic gradient of the SCF energy
 Gradient of SCF Energy
            1           2           3           4           5           6
    1  -0.0000704   0.0000388  -0.0000204   0.0000124  -0.0000047   0.0003219
    2   0.0000173   0.0000517   0.0000108   0.0000287   0.0000192   0.0107413
    3   0.0000312  -0.0000588   0.0000194   0.0000996   0.0000061  -0.0001147
            7           8           9          10          11          12
    1   0.0000226   0.0021675  -0.0070999   0.0045838  -0.0000016  -0.0000224
    2   0.0000304  -0.0142629  -0.0015730   0.0050217   0.0000235  -0.0000690
    3   0.0000091  -0.0048772   0.0133092  -0.0082747  -0.0000449  -0.0000805
           13          14          15          16
    1   0.0000043  -0.0000047   0.0000123   0.0000604
    2  -0.0000129   0.0000728  -0.0000404  -0.0000594
    3  -0.0000154  -0.0000077  -0.0000023   0.0000015
 Max gradient component =       1.426E-02
 RMS gradient           =       3.797E-03
 Gradient time:  CPU 1.92 s  wall 1.91 s
 Geometry Optimization Parameters
   NAtoms,    NIC,     NZ,  NCons,   NDum,   NFix, NCnnct, MaxDiis
       16     111       0       1       0       0       0       0

 Cartesian Hessian Update
 Hessian Updated using BFGS Update


** CONSTRAINED OPTIMIZATION IN DELOCALIZED INTERNAL COORDINATES **
   Searching for a Minimum

   Optimization Cycle:   8

                       Coordinates (Angstroms)
     ATOM                X               Y               Z
      1  S         0.0030145404    0.2433179419    0.0472394678
      2  C         1.7156622927    0.2861534437   -0.0695930808
      3  H         2.3109962391    0.4881385896    0.8131458680
      4  C         2.1841749813    0.0086531116   -1.3539311019
      5  H         3.2347839634    0.0272416529   -1.6175319167
      6  C         1.1520226936   -0.2717340694   -2.2487996444
      7  H         1.2966389305   -0.4834221900   -3.3021777348
      8  C        -0.1312309840   -0.2132902118   -1.6549051550
      9  C        -1.3893566526   -0.1708122632   -2.3116248367
     10  C        -2.3731561656    0.8425424988   -2.2242171011
     11  H        -2.3361599364    1.6269022687   -1.4767075989
     12  C        -3.3514731832    0.7443089566   -3.2131203318
     13  H        -4.1814116382    1.4316998280   -3.3237219038
     14  C        -3.1372651916   -0.3356979410   -4.0697788804
     15  H        -3.7727029730   -0.6580158699   -4.8863431770
     16  S        -1.7138185763   -1.2204303367   -3.6958865827
   Point Group: c1    Number of degrees of freedom:    42


   Energy is  -1104.560628511

              Constraints and their Current Values
                                        Value     Constraint
   Dihedral:        6   8   9  10     -120.000     -120.000
 Hessian Updated using BFGS Update

 41 Hessian modes will be used to form the next step
  Hessian Eigenvalues:
     0.015843    0.020800    0.044571    0.045000    0.045000    0.045001
     0.045002    0.045003    0.045005    0.045011    0.045051    0.047115
     0.156305    0.159766    0.159949    0.159990    0.160000    0.160008
     0.221295    0.222190    0.237891    0.247933    0.250101    0.285020
     0.294412    0.294922    0.297212    0.312571    0.354761    0.354914
     0.355128    0.355152    0.358272    0.358717    0.380610    0.404921
     0.424829    0.447415    0.463581    0.485774    0.497936

 Minimum Search - Taking Simple RFO Step
 Searching for Lamda that Minimizes Along All modes
 Value Taken    Lamda =   0.00000000
 Step Taken.  Stepsize is  0.002503

                             Maximum     Tolerance    Cnvgd?
         Gradient           0.000113      0.000300     YES
         Displacement       0.001409      0.001200      NO
         Energy change     -0.000001      0.000001     YES

 Final energy is   -1104.56062851134     


 ******************************
 **  OPTIMIZATION CONVERGED  **
 ******************************

                       Coordinates (Angstroms)
     ATOM                X               Y               Z
      1  S         0.0030145404    0.2433179419    0.0472394678
      2  C         1.7156622927    0.2861534437   -0.0695930808
      3  H         2.3109962391    0.4881385896    0.8131458680
      4  C         2.1841749813    0.0086531116   -1.3539311019
      5  H         3.2347839634    0.0272416529   -1.6175319167
      6  C         1.1520226936   -0.2717340694   -2.2487996444
      7  H         1.2966389305   -0.4834221900   -3.3021777348
      8  C        -0.1312309840   -0.2132902118   -1.6549051550
      9  C        -1.3893566526   -0.1708122632   -2.3116248367
     10  C        -2.3731561656    0.8425424988   -2.2242171011
     11  H        -2.3361599364    1.6269022687   -1.4767075989
     12  C        -3.3514731832    0.7443089566   -3.2131203318
     13  H        -4.1814116382    1.4316998280   -3.3237219038
     14  C        -3.1372651916   -0.3356979410   -4.0697788804
     15  H        -3.7727029730   -0.6580158699   -4.8863431770
     16  S        -1.7138185763   -1.2204303367   -3.6958865827

Z-matrix Print:
$molecule
1 2
S 
C  1 1.717162
H  2 1.083720 1 119.810169
C  2 1.395003 1 113.119238 3 178.449138 0
H  4 1.083333 2 123.114463 1 177.747219 0
C  4 1.394541 2 112.470558 1 -1.370359 0
H  6 1.084127 4 124.334474 2 178.057543 0
C  6 1.415227 4 113.174365 2 -0.066005 0
C  8 1.419847 6 127.633331 4 165.974354 0
C  9 1.415058 8 127.510193 6 -119.999999 0
H  10 1.084140 9 122.477566 8 -12.038233 0
C  10 1.394519 9 113.171854 8 166.110129 0
H  12 1.083299 10 124.414126 9 -179.176379 0
C  12 1.395050 10 112.474519 9 -0.044397 0
H  14 1.083719 12 127.078680 10 176.915280 0
S  14 1.717192 12 113.106827 10 -1.385958 0
$end

 
 --------------------------------------------------------------
 
                    Orbital Energies (a.u.)
 --------------------------------------------------------------
 
 Alpha MOs
 -- Occupied --
-89.097 -89.097 -10.433 -10.432 -10.417 -10.417 -10.393 -10.393
-10.379 -10.379  -8.156  -8.156  -6.121  -6.121  -6.117  -6.116
 -6.113  -6.113  -1.086  -1.060  -0.958  -0.931  -0.921  -0.881
 -0.787  -0.755  -0.729  -0.712  -0.699  -0.650  -0.596  -0.594
 -0.587  -0.582  -0.579  -0.556  -0.551  -0.533  -0.522  -0.462
 -0.438  -0.437  -0.400
 -- Virtual --
 -0.240  -0.193  -0.158  -0.157  -0.133  -0.123  -0.120  -0.111
 -0.099  -0.096  -0.090  -0.086  -0.082  -0.075  -0.070  -0.060
 -0.045  -0.037  -0.036  -0.025  -0.024  -0.018  -0.009  -0.007
 -0.001   0.003   0.007   0.008   0.013   0.013   0.021   0.024
  0.027   0.027   0.034   0.039   0.043   0.043   0.048   0.057
  0.069   0.071   0.078   0.079   0.091   0.094   0.102   0.103
  0.105   0.113   0.114   0.122   0.137   0.145   0.151   0.157
  0.167   0.173   0.187   0.198   0.207   0.221   0.231   0.237
  0.264   0.303   0.308   0.357   0.362   0.382   0.390   0.405
  0.411   0.448   0.454   0.466   0.467   0.494   0.497   0.501
  0.523   0.538   0.557   0.559   0.573   0.591   0.591   0.612
  0.614   0.638   0.655   0.661   0.666   0.701   0.743   0.760
  0.765   0.781   0.802   0.814   0.818   0.824   0.829   0.845
  0.851   0.863   0.865   0.905   0.917   0.921   0.930   0.940
  0.979   1.004   1.011   1.056   1.081   1.098   1.149   1.162
  1.162   1.167   1.178   1.209   1.252   1.272   1.312   1.347
  1.414   1.481   1.515   1.538   1.646   1.658   1.707   1.726
  1.733   1.748   1.783   1.813   1.839   1.845   1.895   1.902
  1.936   1.958   1.982   1.996   2.040   2.063   2.077   2.160
  2.200   2.204   2.239   2.261   2.281   2.300   2.319   2.326
  2.346   2.353   2.400   2.408   2.426   2.477   2.517   2.524
  2.571   2.659   2.662   2.715   2.744   2.976   3.010   3.106
  3.108   3.226   3.242   3.547   3.567   3.798   3.800   4.081
  4.091   4.136   4.147   4.237   4.340   4.487   4.524
 
 Beta MOs
 -- Occupied --
-89.098 -89.097 -10.431 -10.430 -10.413 -10.413 -10.391 -10.391
-10.379 -10.379  -8.157  -8.156  -6.121  -6.121  -6.117  -6.117
 -6.114  -6.114  -1.080  -1.055  -0.950  -0.929  -0.919  -0.870
 -0.782  -0.751  -0.724  -0.709  -0.698  -0.647  -0.592  -0.589
 -0.582  -0.577  -0.577  -0.546  -0.540  -0.531  -0.520  -0.437
 -0.435  -0.431
 -- Virtual --
 -0.334  -0.220  -0.177  -0.154  -0.153  -0.126  -0.119  -0.111
 -0.108  -0.098  -0.095  -0.090  -0.086  -0.081  -0.074  -0.070
 -0.060  -0.044  -0.036  -0.035  -0.024  -0.024  -0.017  -0.007
 -0.007  -0.000   0.003   0.009   0.009   0.014   0.015   0.022
  0.025   0.028   0.029   0.035   0.040   0.044   0.044   0.049
  0.058   0.069   0.073   0.080   0.080   0.093   0.096   0.102
  0.104   0.106   0.114   0.117   0.123   0.138   0.146   0.152
  0.159   0.168   0.175   0.189   0.200   0.209   0.223   0.232
  0.239   0.267   0.304   0.310   0.360   0.363   0.382   0.390
  0.406   0.412   0.449   0.455   0.468   0.473   0.501   0.505
  0.511   0.525   0.540   0.559   0.560   0.576   0.596   0.597
  0.616   0.618   0.643   0.657   0.666   0.670   0.703   0.745
  0.763   0.771   0.783   0.806   0.816   0.820   0.828   0.831
  0.846   0.853   0.865   0.866   0.906   0.919   0.922   0.932
  0.942   0.984   1.008   1.015   1.061   1.084   1.101   1.151
  1.166   1.168   1.176   1.185   1.212   1.259   1.277   1.320
  1.352   1.422   1.491   1.529   1.550   1.649   1.662   1.715
  1.728   1.735   1.752   1.785   1.818   1.844   1.850   1.903
  1.907   1.945   1.966   1.987   2.008   2.054   2.068   2.082
  2.166   2.204   2.207   2.242   2.268   2.285   2.301   2.324
  2.332   2.349   2.356   2.405   2.412   2.431   2.480   2.522
  2.528   2.577   2.662   2.665   2.717   2.747   2.978   3.012
  3.106   3.109   3.228   3.243   3.548   3.568   3.799   3.801
  4.087   4.098   4.140   4.150   4.243   4.347   4.490   4.528
 --------------------------------------------------------------
 
          Ground-State Mulliken Net Atomic Charges

     Atom                 Charge (a.u.)    Spin (a.u.)
  --------------------------------------------------------
      1 S                     0.149733      -0.052923
      2 C                     0.098264       0.320888
      3 H                     0.250181      -0.016200
      4 C                    -0.386274      -0.031770
      5 H                     0.170509       0.001177
      6 C                     0.165489       0.152828
      7 H                     0.170616      -0.009211
      8 C                    -0.115836       0.135623
      9 C                    -0.119719       0.134836
     10 C                     0.163676       0.152652
     11 H                     0.170442      -0.009181
     12 C                    -0.386367      -0.031799
     13 H                     0.170362       0.001179
     14 C                     0.097724       0.320887
     15 H                     0.250168      -0.016214
     16 S                     0.151034      -0.052773
  --------------------------------------------------------
  Sum of atomic charges =     1.000000
  Sum of spin   charges =     1.000000

 -----------------------------------------------------------------
                    Cartesian Multipole Moments
 -----------------------------------------------------------------
    Charge (ESU x 10^10)
                 4.8032
    Dipole Moment (Debye)
         X      -3.1739      Y       0.6265      Z     -10.3431
       Tot      10.8373
    Quadrupole Moments (Debye-Ang)
        XX     -33.8093     XY      -2.1183     YY     -67.3729
        XZ      24.1000     YZ       4.1645     ZZ     -28.2663
    Octopole Moments (Debye-Ang^2)
       XXX      94.2984    XXY      20.5272    XYY      37.8752
       YYY      20.5826    XXZ      33.5151    XYZ       1.4009
       YYZ     133.3667    XZZ     -48.7953    YZZ     -16.4809
       ZZZ     265.2736
    Hexadecapole Moments (Debye-Ang^3)
      XXXX   -1229.0933   XXXY     -66.7313   XXYY    -285.9770
      XYYY     -31.1315   YYYY    -261.5173   XXXZ    -355.2485
      XXYZ     -53.2951   XYYZ    -195.5629   YYYZ    -139.2337
      XXZZ    -275.4634   XYZZ      28.2527   YYZZ    -463.1581
      XZZZ    -227.5613   YZZZ     -15.1749   ZZZZ   -2031.5679
 -----------------------------------------------------------------
Archival summary:
1\1\nid00782\OPT\ProcedureUnspecified\BasisUnspecified\286(1+,2)\bwood\WedMay3102:27:202017WedMay3102:27:202017\0\\#,OPT,ProcedureUnspecified,BasisUnspecified,\\1,2\S\C,1,1.71716\H,2,1.08372,1,119.81\C,2,1.395,1,113.119,3,178.449,0\H,4,1.08333,2,123.114,1,177.747,0\C,4,1.39454,2,112.471,1,-1.37036,0\H,6,1.08413,4,124.334,2,178.058,0\C,6,1.41523,4,113.174,2,-0.0660048,0\C,8,1.41985,6,127.633,4,165.974,0\C,9,1.41506,8,127.51,6,-120,0\H,10,1.08414,9,122.478,8,-12.0382,0\C,10,1.39452,9,113.172,8,166.11,0\H,12,1.0833,10,124.414,9,-179.176,0\C,12,1.39505,10,112.475,9,-0.0443967,0\H,14,1.08372,12,127.079,10,176.915,0\S,14,1.71719,12,113.107,10,-1.38596,0\\\@

 Total job time:  92.96s(wall), 92.73s(cpu) 
 Wed May 31 02:27:20 2017

        *************************************************************
        *                                                           *
        *  Thank you very much for using Q-Chem.  Have a nice day.  *
        *                                                           *
        *************************************************************


0 sent ACK to 0 
now end server 0 ... 
