srun -N 1 --ntasks-per-node 16 --cpus-per-task 4 --cpu_bind=cores --nodelist nid00812 /global/project/projectdirs/jcesr/qchem/qc44/cnl_qc441/dist/exe/qcprog.cori.haswell.exe .pt_n2_cation_-70.0.in.26279.qcin.1 /global/cscratch1/sd/bwood/qchem/nx/qchem26279/
Process 0 of 16 is on nid00812 - thread support 0
Process 1 of 16 is on nid00812 - thread support 0
Process 2 of 16 is on nid00812 - thread support 0
Process 3 of 16 is on nid00812 - thread support 0
Process 4 of 16 is on nid00812 - thread support 0
Process 5 of 16 is on nid00812 - thread support 0
Process 6 of 16 is on nid00812 - thread support 0
Process 15 of 16 is on nid00812 - thread support 0
initial socket setup ...start
initial socket setup ...done 
now start server 0 ... 
nid00812 10.128.3
Q-Chem Developer Version! Running on 10.128.3.*
                  Welcome to Q-Chem
     A Quantum Leap Into The Future Of Chemistry


 Q-Chem 4.4, Q-Chem, Inc., Pleasanton, CA (2016)

 Y. Shao,  Z. Gan,  E. Epifanovsky,  A. T. B. Gilbert,  M. Wormit,  
 J. Kussmann,  A. W. Lange,  A. Behn,  J. Deng,  X. Feng,  D. Ghosh,  
 M. Goldey,  P. R. Horn,  L. D. Jacobson,  I. Kaliman,  F. Rob,  
 R. Z. Khaliullin,  T. Kus,  A. Landau,  J. Liu,  E. I. Proynov,  Y. M. Rhee,  
 R. M. Richard,  M. A. Rohrdanz,  R. P. Steele,  E. J. Sundstrom,  
 H. L. Woodcock III,  P. M. Zimmerman,  D. Zuev,  B. Albrecht,  E. Alguire,  
 B. Austin,  S. A. Baeppler,  G. J. O. Beran,  Y. A. Bernard,  
 E. J. Berquist,  K. Brandhorst,  K. B. Bravaya,  S. T. Brown,  D. Casanova,  
 C.-M. Chang,  Y. Chen,  S. H. Chien,  K. D. Closser,  M. P. Coons,  
 D. L. Crittenden,  S. Dasgupta,  M. Diedenhofen,  R. A. DiStasio Jr.,  
 H. Do,  A. D. Dutoi,  R. G. Edgar,  P.-T. Fang,  S. Fatehi,  Q. Feng,  
 L. Fusti-Molnar,  A. Ghysels,  A. Golubeva-Zadorozhnaya,  J. Gomes,  
 A. Gunina,  M. W. D. Hanson-Heine,  P. H. P. Harbach,  A. W. Hauser,  
 J. E. Herr,  E. G. Hohenstein,  Z. C. Holden,  K. Hui,  T.-C. Jagau,  H. Ji,  
 B. Kaduk,  K. Khistyaev,  Jaehoon Kim,  Jihan Kim,  R. A. King,  
 P. Klunzinger,  K. Koh,  D. Kosenkov,  T. Kowalczyk,  C. M. Krauter,  
 A. Kunitsa,  K. U. Lao,  A. Laurent,  K. V. Lawler,  J. Lee,  D. Lefrancois,  
 S. Lehtola,  S. V. Levchenko,  C. Y. Lin,  Y.-S. Lin,  F. Liu,  E. Livshits,  
 R. C. Lochan,  A. Luenser,  P. Manohar,  S. F. Manzer,  S.-P. Mao,  Y. Mao,  
 N. Mardirossian,  A. V. Marenich,  L. A. Martinez-Martinez,  S. A. Maurer,  
 N. J. Mayhall,  J.-M. Mewes,  A. F. Morrison,  K. Nanda,  T. S. Nguyen-Beck,  
 C. M. Oana,  R. Olivares-Amaya,  D. P. O'Neill,  J. A. Parkhill,  
 T. M. Perrine,  R. Peverati,  P. A. Pieniazek,  F. Plasser,  A. Prociuk,  
 D. R. Rehn,  E. Rosta,  N. J. Russ,  N. Sergueev,  S. M. Sharada,  
 S. Sharma,  D. W. Small,  A. Sodt,  T. Stauch,  T. Stein,  D. Stuck,  
 Y.-C. Su,  A. J. W. Thom,  T. Tsuchimochi,  L. Vogt,  O. Vydrov,  T. Wang,  
 M. A. Watson,  J. Wenzel,  A. White,  C. F. Williams,  V. Vanovschi,  
 K. Yao,  S. Yeganeh,  S. R. Yost,  Z.-Q. You,  I. Y. Zhang,  X. Zhang,  
 Y. Zhao,  B. R. Brooks,  G. K. L. Chan,  D. M. Chipman,  C. J. Cramer,  
 W. A. Goddard III,  M. S. Gordon,  W. J. Hehre,  A. Klamt,  
 H. F. Schaefer III,  M. W. Schmidt,  C. D. Sherrill,  D. G. Truhlar,  
 A. Warshel,  X. Xu,  A. Aspuru-Guzik,  R. Baer,  A. T. Bell,  N. A. Besley,  
 J.-D. Chai,  A. Dreuw,  B. D. Dunietz,  T. R. Furlani,  S. R. Gwaltney,  
 C.-P. Hsu,  Y. Jung,  J. Kong,  D. S. Lambrecht,  W. Liang,  C. Ochsenfeld,  
 V. A. Rassolov,  L. V. Slipchenko,  J. E. Subotnik,  T. Van Voorhis,  
 J. M. Herbert,  A. I. Krylov,  P. M. W. Gill,  M. Head-Gordon

 Contributors to earlier versions of Q-Chem not listed above: 
 R. D. Adamson,  J. Baker,  E. F. C. Byrd,  A. K. Chakraborty,  C.-L. Cheng,  
 H. Dachsel,  R. J. Doerksen,  G. Hawkins,  A. Heyden,  S. Hirata,  
 G. Kedziora,  F. J. Keil,  C. Kelley,  P. P. Korambath,  W. Kurlancheek,  
 A. M. Lee,  M. S. Lee,  D. Liotard,  I. Lotan,  P. E. Maslen,  N. Nair,  
 D. Neuhauser,  R. Olson,  B. Peters,  J. Ritchie,  N. E. Schultz,  
 N. Shenvi,  A. C. Simmonett,  K. S. Thanthiriwatte,  Q. Wu,  W. Zhang

 Please cite Q-Chem as follows:
 Y. Shao et al., Mol. Phys. 113, 184-215 (2015)
 DOI: 10.1080/00268976.2014.952696

 Q-Chem 4.4.2 for Intel X86 EM64T Linux

 Parts of Q-Chem use Armadillo 5.200.1 (Boston Tea Smuggler).
 http://arma.sourceforge.net/

 Q-Chem begins on Wed May 31 02:25:50 2017  

Host: nid00776
0

     Scratch files written to /global/cscratch1/sd/bwood/qchem/nx/qchem26279.0//
 Parallel job on  16  processors

Checking the input file for inconsistencies... 	...done.

--------------------------------------------------------------
User input:
--------------------------------------------------------------
$molecule
 1  2
 S           0.00238887        0.06077275        0.00183269
 C           1.73707619        0.03315849        0.00323229
 H           2.27612737        0.05289032        0.94042557
 C           2.24169204       -0.01546201       -1.26965798
 H           3.30285780       -0.04005365       -1.48972496
 C           1.22479222       -0.01612968       -2.26811464
 H           1.42674790       -0.02650987       -3.33334501
 C          -0.05393771        0.02880388       -1.75170966
 C          -1.32450815        0.04889988       -2.45636342
 C          -1.87878338        1.05691509       -3.21841508
 H          -1.37790393        2.00231287       -3.39493952
 C          -3.14804684        0.71935187       -3.77150284
 H          -3.72690446        1.38393152       -4.40265447
 C          -3.55716209       -0.54335979       -3.43191756
 H          -4.46619816       -1.05529587       -3.71662115
 S          -2.40031074       -1.33723846       -2.41162991
$end


$rem
         jobtype = opt
        exchange = b3lyp
           basis = 6-31++g**
  max_scf_cycles = 150
      mem_static = 775
       mem_total = 7750
      sym_ignore = true
        symmetry = false
          thresh = 12
$end


$opt
CONSTRAINT
tors 6 8 9 10 -70.0
ENDCONSTRAINT
$end

--------------------------------------------------------------
 ----------------------------------------------------------------
             Standard Nuclear Orientation (Angstroms)
    I     Atom           X                Y                Z
 ----------------------------------------------------------------
    1      S       0.0023888700     0.0607727500     0.0018326900
    2      C       1.7370761900     0.0331584900     0.0032322900
    3      H       2.2761273700     0.0528903200     0.9404255700
    4      C       2.2416920400    -0.0154620100    -1.2696579800
    5      H       3.3028578000    -0.0400536500    -1.4897249600
    6      C       1.2247922200    -0.0161296800    -2.2681146400
    7      H       1.4267479000    -0.0265098700    -3.3333450100
    8      C      -0.0539377100     0.0288038800    -1.7517096600
    9      C      -1.3245081500     0.0488998800    -2.4563634200
   10      C      -1.8787833800     1.0569150900    -3.2184150800
   11      H      -1.3779039300     2.0023128700    -3.3949395200
   12      C      -3.1480468400     0.7193518700    -3.7715028400
   13      H      -3.7269044600     1.3839315200    -4.4026544700
   14      C      -3.5571620900    -0.5433597900    -3.4319175600
   15      H      -4.4661981600    -1.0552958700    -3.7166211500
   16      S      -2.4003107400    -1.3372384600    -2.4116299100
 ----------------------------------------------------------------
 Nuclear Repulsion Energy =   629.5648027773 hartrees
 There are       43 alpha and       42 beta electrons
 Requested basis set is 6-31++G(d,p)
 There are 76 shells and 234 basis functions

 Total QAlloc Memory Limit   7750 MB
 Mega-Array Size       758 MB
 MEM_STATIC part       775 MB
 A cutoff of  1.0D-12 yielded   2527 shell pairs
 There are     24921 function pairs

 Q-Chem warning in module /project/projectdirs/jcesr/qchem/qc44/cnl_qc441/compile/cori/qc_src/libqints/qchem/aobasis.C, line 68:

 Using reconstructed effective core potential

 
 -------------------------------------------------------
 OpenMP Integral Computing Module                       
 Release: version 1.0, May 2013, Q-Chem Inc. Pittsburgh 
 -------------------------------------------------------
 Integral Job Info:
 Integral job number is                      11
 Integral operator is                         1
 short-range coefficients                     0
 long-range coefficients              100000000
 Omega coefficients                           0
 if combine SR and LR in K                    0
 Integral screening is                        0
 Integral computing path is                   2
 max size of driver memory is            800000
 size of driver memory is                593474
 size of scratch memory is             15166112
 max col of scratch BK array               1296
 max len of scratch array in speh3          155
 max len of scratch index in speh4           18
 max int batch size is                      520
 min int batch size is                       52
 fixed nKL is                                52
 max L of basis functions is                  2
 order of int derivative is                   0
 number of shells is                         76
 number of basis is                         234
 number of cartesian basis is               234
 number of contracted shell pairs          2527
 number of primitive shell pairs           8215
 maxK2 (contraction) of shell pair           36
 max number of K2 of shell pair               1
 max number of CS2 of shell pair            262
 max number of PS2 of shell pair           1500
 mem total for path MDJ                   51992
 -------------------------------------------------------
 Smallest overlap matrix eigenvalue = 1.10E-06

 Scale SEOQF with 1.000000e-01/1.000000e-01/1.000000e-01

 Standard Electronic Orientation quadrupole field applied
 Nucleus-field energy     =    -0.0000000332 hartrees
 Guess from superposition of atomic densities
 Warning:  Energy on first SCF cycle will be non-variational
 An unrestricted hybrid HF-DFT SCF calculation will be
 performed using Pulay DIIS extrapolation
 Exchange:     0.2000 Hartree-Fock + 0.0800 Slater + 0.7200 B88
 Correlation:  0.1900 VWN1RPA + 0.8100 LYP
 Using SG-1 standard quadrature grid
 SCF converges when DIIS error is below 1.0E-08
 Inaccurate integrated density:
   Number of electrons =    85
   Numerical integral  =    86.000340111865
   Relative error      =     1.1768707198 %
 ---------------------------------------
  Cycle       Energy         DIIS Error
 ---------------------------------------
    1   -1107.1865708235      4.40E-02
    2   -1104.4107107702      4.08E-03
    3   -1104.0661060750      7.55E-03
    4   -1104.5285984430      1.30E-03
    5   -1104.5374344201      7.70E-04
    6   -1104.5421427351      3.09E-04
    7   -1104.5428655799      1.64E-04
    8   -1104.5431526477      4.20E-05
    9   -1104.5432071239      2.43E-05
   10   -1104.5432530460      1.25E-05
   11   -1104.5432769051      4.68E-06
   12   -1104.5432802340      3.01E-06
   13   -1104.5432811220      1.38E-06
   14   -1104.5432814229      4.97E-07
   15   -1104.5432814544      2.83E-07
   16   -1104.5432814664      1.06E-07
   17   -1104.5432814672      5.27E-08
   18   -1104.5432814668      3.61E-08
   19   -1104.5432814673      2.44E-08
   20   -1104.5432814678      1.12E-08
   21   -1104.5432814668      4.49E-09 Convergence criterion met
 ---------------------------------------
 <S^2> = 0.7591
 SCF time:  CPU 14.05 s  wall 13.52 s
 SCF   energy in the final basis set = -1104.5432814668
 Total energy in the final basis set = -1104.5432814668
 
 --------------------------------------------------------------
 
                    Orbital Energies (a.u.)
 --------------------------------------------------------------
 
 Alpha MOs
 -- Occupied --
-89.094 -89.094 -10.433 -10.433 -10.416 -10.416 -10.390 -10.390
-10.381 -10.381  -8.153  -8.153  -6.118  -6.118  -6.113  -6.113
 -6.110  -6.110  -1.086  -1.062  -0.960  -0.922  -0.917  -0.892
 -0.786  -0.748  -0.740  -0.710  -0.697  -0.653  -0.598  -0.594
 -0.591  -0.583  -0.575  -0.556  -0.553  -0.522  -0.520  -0.447
 -0.436  -0.429  -0.423
 -- Virtual --
 -0.223  -0.207  -0.154  -0.145  -0.136  -0.130  -0.124  -0.107
 -0.095  -0.094  -0.090  -0.087  -0.078  -0.078  -0.063  -0.063
 -0.046  -0.042  -0.036  -0.027  -0.024  -0.017  -0.015  -0.004
 -0.001  -0.000   0.003   0.004   0.014   0.016   0.023   0.025
  0.026   0.027   0.033   0.036   0.039   0.051   0.053   0.057
  0.062   0.065   0.070   0.077   0.078   0.092   0.094   0.109
  0.113   0.117   0.122   0.139   0.142   0.144   0.146   0.162
  0.164   0.176   0.177   0.189   0.218   0.228   0.234   0.249
  0.279   0.303   0.312   0.339   0.364   0.370   0.396   0.415
  0.424   0.431   0.453   0.479   0.482   0.482   0.505   0.506
  0.521   0.536   0.562   0.564   0.571   0.589   0.598   0.606
  0.612   0.635   0.636   0.660   0.675   0.729   0.736   0.766
  0.786   0.787   0.798   0.808   0.811   0.833   0.836   0.844
  0.857   0.861   0.875   0.891   0.915   0.930   0.936   0.940
  0.968   1.013   1.037   1.047   1.076   1.110   1.159   1.165
  1.168   1.178   1.182   1.216   1.269   1.288   1.333   1.342
  1.397   1.507   1.509   1.612   1.622   1.669   1.702   1.708
  1.740   1.745   1.763   1.778   1.843   1.848   1.892   1.897
  1.954   1.983   2.003   2.024   2.032   2.070   2.074   2.143
  2.197   2.204   2.259   2.266   2.289   2.297   2.320   2.340
  2.341   2.361   2.415   2.415   2.452   2.454   2.524   2.532
  2.579   2.630   2.697   2.698   2.764   2.984   3.009   3.108
  3.111   3.234   3.257   3.549   3.571   3.787   3.804   4.089
  4.131   4.133   4.150   4.246   4.346   4.480   4.532
 
 Beta MOs
 -- Occupied --
-89.094 -89.094 -10.430 -10.430 -10.413 -10.413 -10.389 -10.389
-10.381 -10.381  -8.153  -8.153  -6.118  -6.118  -6.114  -6.113
 -6.110  -6.110  -1.080  -1.057  -0.950  -0.920  -0.915  -0.882
 -0.781  -0.744  -0.734  -0.707  -0.696  -0.650  -0.594  -0.588
 -0.586  -0.579  -0.572  -0.545  -0.542  -0.521  -0.519  -0.433
 -0.427  -0.418
 -- Virtual --
 -0.359  -0.207  -0.190  -0.151  -0.143  -0.126  -0.123  -0.120
 -0.107  -0.094  -0.093  -0.089  -0.086  -0.077  -0.077  -0.062
 -0.061  -0.044  -0.041  -0.036  -0.026  -0.023  -0.016  -0.014
 -0.003  -0.000   0.001   0.005   0.005   0.014   0.018   0.024
  0.026   0.027   0.028   0.034   0.037   0.041   0.052   0.055
  0.059   0.063   0.066   0.070   0.078   0.079   0.093   0.095
  0.109   0.114   0.118   0.124   0.140   0.142   0.146   0.147
  0.164   0.166   0.178   0.179   0.190   0.219   0.230   0.236
  0.251   0.281   0.306   0.314   0.341   0.366   0.370   0.398
  0.417   0.425   0.432   0.454   0.485   0.487   0.488   0.509
  0.512   0.524   0.538   0.565   0.566   0.574   0.595   0.603
  0.609   0.616   0.637   0.640   0.665   0.679   0.730   0.739
  0.771   0.788   0.792   0.800   0.810   0.813   0.834   0.837
  0.848   0.859   0.862   0.877   0.893   0.916   0.931   0.938
  0.942   0.971   1.017   1.042   1.052   1.078   1.113   1.162
  1.172   1.176   1.183   1.188   1.220   1.274   1.292   1.339
  1.348   1.404   1.519   1.521   1.616   1.631   1.676   1.708
  1.711   1.742   1.751   1.767   1.784   1.848   1.853   1.895
  1.903   1.962   1.993   2.009   2.034   2.043   2.074   2.082
  2.147   2.201   2.207   2.263   2.272   2.293   2.300   2.324
  2.344   2.345   2.365   2.418   2.418   2.456   2.458   2.529
  2.536   2.584   2.633   2.699   2.700   2.766   2.985   3.011
  3.109   3.111   3.235   3.259   3.551   3.572   3.788   3.805
  4.096   4.135   4.139   4.153   4.252   4.353   4.483   4.536
 --------------------------------------------------------------
 
          Ground-State Mulliken Net Atomic Charges

     Atom                 Charge (a.u.)    Spin (a.u.)
  --------------------------------------------------------
      1 S                     0.121745      -0.046766
      2 C                     0.088472       0.276966
      3 H                     0.248694      -0.012404
      4 C                    -0.413496       0.009572
      5 H                     0.172791      -0.001506
      6 C                     0.371219       0.066076
      7 H                     0.184486      -0.004499
      8 C                    -0.276006       0.212771
      9 C                    -0.273642       0.212503
     10 C                     0.373693       0.065859
     11 H                     0.184407      -0.004460
     12 C                    -0.414103       0.009910
     13 H                     0.172762      -0.001526
     14 C                     0.089128       0.276421
     15 H                     0.248690      -0.012396
     16 S                     0.121161      -0.046522
  --------------------------------------------------------
  Sum of atomic charges =     1.000000
  Sum of spin   charges =     1.000000

 -----------------------------------------------------------------
                    Cartesian Multipole Moments
 -----------------------------------------------------------------
    Charge (ESU x 10^10)
                 4.8032
    Dipole Moment (Debye)
         X      -3.1876      Y       0.3495      Z     -10.3248
       Tot      10.8113
    Quadrupole Moments (Debye-Ang)
        XX     -30.6913     XY       1.6634     YY     -66.1045
        XZ      24.8988     YZ      -2.7020     ZZ     -31.1632
    Octopole Moments (Debye-Ang^2)
       XXX      90.2005    XXY      -5.1828    XYY      38.3198
       YYY      26.1646    XXZ      16.2551    XYZ      -0.3505
       YYZ     115.4349    XZZ     -34.1739    YZZ      23.3010
       ZZZ     272.2506
    Hexadecapole Moments (Debye-Ang^3)
      XXXX   -1296.3943   XXXY     -11.5173   XXYY    -313.5567
      XYYY     -74.7164   YYYY    -283.1392   XXXZ    -290.9244
      XXYZ      16.0860   XYYZ    -173.8395   YYYZ     -54.1894
      XXZZ    -248.5873   XYZZ     -43.0222   YYZZ    -373.9265
      XZZZ    -337.9876   YZZZ    -110.6038   ZZZZ   -1889.5829
 -----------------------------------------------------------------
 Calculating analytic gradient of the SCF energy
 Gradient of SCF Energy
            1           2           3           4           5           6
    1   0.0017057   0.0183095  -0.0007977   0.0007880   0.0003624  -0.0300329
    2   0.0076813   0.0012716  -0.0026335   0.0023494   0.0014314  -0.0121251
    3  -0.0128216  -0.0099667  -0.0011266   0.0294595   0.0006053   0.0029108
            7           8           9          10          11          12
    1  -0.0003403   0.0182228  -0.0089270   0.0124266   0.0008529  -0.0169364
    2   0.0014061  -0.0020421   0.0141012  -0.0110502  -0.0005864  -0.0240170
    3  -0.0000740  -0.0063316  -0.0096296   0.0279793  -0.0009712  -0.0006725
           13          14          15          16
    1   0.0000622  -0.0055394   0.0000054   0.0098382
    2  -0.0009260   0.0157245   0.0015913   0.0078234
    3  -0.0012969  -0.0126671   0.0024793  -0.0078765
 Max gradient component =       3.003E-02
 RMS gradient           =       1.113E-02
 Gradient time:  CPU 1.92 s  wall 1.91 s
 Geometry Optimization Parameters
   NAtoms,    NIC,     NZ,  NCons,   NDum,   NFix, NCnnct, MaxDiis
       16     111       0       1       0       0       0       0


** CONSTRAINED OPTIMIZATION IN DELOCALIZED INTERNAL COORDINATES **
   Searching for a Minimum

   Optimization Cycle:   1

                       Coordinates (Angstroms)
     ATOM                X               Y               Z
      1  S         0.0023888700    0.0607727500    0.0018326900
      2  C         1.7370761900    0.0331584900    0.0032322900
      3  H         2.2761273700    0.0528903200    0.9404255700
      4  C         2.2416920400   -0.0154620100   -1.2696579800
      5  H         3.3028578000   -0.0400536500   -1.4897249600
      6  C         1.2247922200   -0.0161296800   -2.2681146400
      7  H         1.4267479000   -0.0265098700   -3.3333450100
      8  C        -0.0539377100    0.0288038800   -1.7517096600
      9  C        -1.3245081500    0.0488998800   -2.4563634200
     10  C        -1.8787833800    1.0569150900   -3.2184150800
     11  H        -1.3779039300    2.0023128700   -3.3949395200
     12  C        -3.1480468400    0.7193518700   -3.7715028400
     13  H        -3.7269044600    1.3839315200   -4.4026544700
     14  C        -3.5571620900   -0.5433597900   -3.4319175600
     15  H        -4.4661981600   -1.0552958700   -3.7166211500
     16  S        -2.4003107400   -1.3372384600   -2.4116299100
   Point Group: c1    Number of degrees of freedom:    42


   Energy is  -1104.543281467

              Constraints and their Current Values
                                        Value     Constraint
   Dihedral:        6   8   9  10      -70.000      -70.000

 Attempting to Generate Delocalized Internal Coordinates

 41 Hessian modes will be used to form the next step
  Hessian Eigenvalues:
     0.045000    0.045000    0.045000    0.045000    0.045000    0.045000
     0.045002    0.045002    0.045003    0.045004    0.045011    0.045012
     0.159943    0.159949    0.159991    0.159992    0.160000    0.160000
     0.221282    0.221282    0.237835    0.237839    0.250000    0.250000
     0.294264    0.294663    0.312518    0.312618    0.354736    0.354850
     0.355125    0.355132    0.358226    0.358329    0.378510    0.404854
     0.404909    0.463547    0.463616    0.497922    0.497945

 Minimum Search - Taking Simple RFO Step
 Searching for Lamda that Minimizes Along All modes
 Value Taken    Lamda =  -0.01200571
 Step Taken.  Stepsize is  0.298942

                             Maximum     Tolerance    Cnvgd?
         Gradient           0.028558      0.000300      NO
         Displacement       0.135851      0.001200      NO
         Energy change     *********      0.000001      NO


 New Cartesian Coordinates Obtained by Inverse Iteration

 Displacement from previous Coordinates is:  0.445698
 ----------------------------------------------------------------
             Standard Nuclear Orientation (Angstroms)
    I     Atom           X                Y                Z
 ----------------------------------------------------------------
    1      S      -0.0462046104    -0.0068680256     0.0108039448
    2      C       1.6821354817     0.0015380256    -0.0097141725
    3      H       2.2180822861     0.0062031021     0.9317953026
    4      C       2.2226401909    -0.0056825008    -1.2922651697
    5      H       3.2861787952    -0.0280896717    -1.4992841115
    6      C       1.2351657968     0.0345227029    -2.2859855519
    7      H       1.4426325205     0.0452449757    -3.3501536448
    8      C      -0.0601024511     0.0563809420    -1.7528642327
    9      C      -1.3073302614     0.0357086263    -2.4752941154
   10      C      -1.8516924156     1.0554177736    -3.2666424013
   11      H      -1.3449130794     1.9937097162    -3.4628239761
   12      C      -3.1178514499     0.7251957027    -3.7689442503
   13      H      -3.7052903466     1.3799474597    -4.4020644548
   14      C      -3.5276167187    -0.5449846851    -3.3742749053
   15      H      -4.4441868641    -1.0556207691    -3.6444403601
   16      S      -2.4037199441    -1.3396360346    -2.3289535511
 ----------------------------------------------------------------
 Nuclear Repulsion Energy =   630.3133434656 hartrees
 There are       43 alpha and       42 beta electrons
 Applying Cartesian multipole field
    Component          Value
    ---------          -----
     (2,0,0)        1.00000E-11
     (0,2,0)        2.00000E-11
     (0,0,2)       -3.00000E-11
 Nucleus-field energy     =    -0.0000000328 hartrees
 Requested basis set is 6-31++G(d,p)
 There are 76 shells and 234 basis functions
 A cutoff of  1.0D-12 yielded   2533 shell pairs
 There are     24959 function pairs

 Q-Chem warning in module /project/projectdirs/jcesr/qchem/qc44/cnl_qc441/compile/cori/qc_src/libqints/qchem/aobasis.C, line 68:

 Using reconstructed effective core potential

 Smallest overlap matrix eigenvalue = 1.13E-06
 Guess MOs from SCF MO coefficient file
 Reading MOs from coefficient file
 Reading MOs from coefficient file
 An unrestricted hybrid HF-DFT SCF calculation will be
 performed using Pulay DIIS extrapolation
 Exchange:     0.2000 Hartree-Fock + 0.0800 Slater + 0.7200 B88
 Correlation:  0.1900 VWN1RPA + 0.8100 LYP
 Using SG-1 standard quadrature grid
 SCF converges when DIIS error is below 1.0E-08
 Geometry optimization detected.  Setting ReadMinima to 0
 Setting SaveMinima to 0
 ---------------------------------------
  Cycle       Energy         DIIS Error
 ---------------------------------------
    1   -1104.4958710986      2.54E-03
    2   -1104.5481746555      4.97E-04
    3   -1104.5460016965      7.58E-04
    4   -1104.5502189699      8.78E-05
    5   -1104.5502666484      4.00E-05
    6   -1104.5502792501      1.38E-05
    7   -1104.5502808713      9.44E-06
    8   -1104.5502818581      1.76E-06
    9   -1104.5502820643      1.03E-06
   10   -1104.5502821506      8.73E-07
   11   -1104.5502822255      3.57E-07
   12   -1104.5502822613      2.05E-07
   13   -1104.5502822646      6.87E-08
   14   -1104.5502822655      3.97E-08
   15   -1104.5502822654      1.51E-08
   16   -1104.5502822662      4.66E-09 Convergence criterion met
 ---------------------------------------
 <S^2> = 0.7612
 SCF time:  CPU 11.07 s  wall 10.48 s
 SCF   energy in the final basis set = -1104.5502822662
 Total energy in the final basis set = -1104.5502822662
 
 --------------------------------------------------------------
 
                    Orbital Energies (a.u.)
 --------------------------------------------------------------
 
 Alpha MOs
 -- Occupied --
-89.098 -89.098 -10.431 -10.431 -10.416 -10.416 -10.389 -10.389
-10.379 -10.379  -8.156  -8.156  -6.121  -6.121  -6.117  -6.117
 -6.113  -6.113  -1.083  -1.059  -0.954  -0.927  -0.922  -0.881
 -0.783  -0.747  -0.736  -0.712  -0.698  -0.646  -0.593  -0.591
 -0.586  -0.580  -0.575  -0.554  -0.549  -0.532  -0.528  -0.445
 -0.440  -0.433  -0.411
 -- Virtual --
 -0.228  -0.209  -0.160  -0.149  -0.134  -0.130  -0.125  -0.107
 -0.095  -0.094  -0.091  -0.086  -0.079  -0.077  -0.063  -0.060
 -0.046  -0.042  -0.035  -0.026  -0.024  -0.016  -0.016  -0.004
 -0.000   0.002   0.005   0.005   0.013   0.016   0.023   0.024
  0.026   0.030   0.032   0.034   0.039   0.050   0.056   0.057
  0.062   0.063   0.069   0.078   0.082   0.094   0.094   0.109
  0.110   0.116   0.119   0.134   0.142   0.143   0.146   0.160
  0.171   0.179   0.181   0.195   0.217   0.224   0.232   0.248
  0.280   0.302   0.314   0.344   0.363   0.364   0.398   0.406
  0.416   0.430   0.454   0.468   0.487   0.489   0.502   0.504
  0.529   0.541   0.559   0.563   0.580   0.587   0.597   0.607
  0.613   0.633   0.636   0.658   0.673   0.728   0.732   0.764
  0.783   0.787   0.793   0.810   0.815   0.827   0.831   0.843
  0.854   0.859   0.875   0.891   0.907   0.923   0.937   0.942
  0.973   1.020   1.040   1.057   1.082   1.114   1.156   1.169
  1.170   1.181   1.183   1.209   1.258   1.294   1.313   1.349
  1.396   1.508   1.508   1.596   1.622   1.674   1.714   1.730
  1.741   1.744   1.772   1.778   1.847   1.851   1.891   1.896
  1.952   1.977   2.000   2.030   2.033   2.070   2.073   2.131
  2.199   2.206   2.253   2.264   2.292   2.294   2.319   2.337
  2.342   2.353   2.404   2.407   2.437   2.457   2.525   2.531
  2.590   2.628   2.694   2.696   2.754   2.981   3.004   3.106
  3.109   3.229   3.251   3.550   3.573   3.779   3.807   4.087
  4.126   4.136   4.152   4.247   4.344   4.486   4.535
 
 Beta MOs
 -- Occupied --
-89.098 -89.098 -10.428 -10.428 -10.413 -10.413 -10.388 -10.388
-10.379 -10.379  -8.156  -8.156  -6.121  -6.121  -6.117  -6.117
 -6.114  -6.114  -1.077  -1.053  -0.945  -0.925  -0.920  -0.871
 -0.778  -0.743  -0.731  -0.709  -0.696  -0.643  -0.587  -0.584
 -0.583  -0.577  -0.572  -0.542  -0.540  -0.531  -0.527  -0.437
 -0.432  -0.415
 -- Virtual --
 -0.346  -0.211  -0.193  -0.155  -0.146  -0.125  -0.123  -0.120
 -0.106  -0.094  -0.093  -0.090  -0.085  -0.078  -0.076  -0.063
 -0.059  -0.044  -0.041  -0.034  -0.025  -0.023  -0.015  -0.015
 -0.003   0.001   0.003   0.006   0.007   0.013   0.018   0.024
  0.025   0.027   0.032   0.034   0.035   0.040   0.051   0.057
  0.059   0.063   0.064   0.070   0.079   0.084   0.095   0.095
  0.110   0.111   0.117   0.120   0.136   0.143   0.144   0.148
  0.162   0.173   0.181   0.183   0.196   0.218   0.226   0.234
  0.250   0.282   0.304   0.316   0.346   0.364   0.365   0.400
  0.409   0.417   0.430   0.454   0.472   0.494   0.496   0.506
  0.512   0.531   0.543   0.561   0.565   0.582   0.594   0.602
  0.609   0.616   0.636   0.641   0.663   0.678   0.729   0.734
  0.769   0.786   0.792   0.794   0.812   0.817   0.827   0.832
  0.846   0.857   0.860   0.877   0.892   0.909   0.925   0.939
  0.944   0.977   1.024   1.046   1.062   1.084   1.118   1.159
  1.175   1.179   1.186   1.187   1.213   1.264   1.299   1.320
  1.354   1.404   1.520   1.520   1.605   1.627   1.680   1.718
  1.735   1.744   1.749   1.776   1.783   1.852   1.856   1.894
  1.904   1.960   1.987   2.006   2.041   2.045   2.077   2.077
  2.136   2.203   2.209   2.258   2.270   2.295   2.297   2.323
  2.343   2.344   2.358   2.407   2.411   2.440   2.461   2.530
  2.535   2.595   2.631   2.697   2.698   2.757   2.982   3.005
  3.106   3.109   3.231   3.253   3.552   3.575   3.779   3.807
  4.093   4.133   4.139   4.155   4.253   4.351   4.489   4.539
 --------------------------------------------------------------
 
          Ground-State Mulliken Net Atomic Charges

     Atom                 Charge (a.u.)    Spin (a.u.)
  --------------------------------------------------------
      1 S                     0.140186      -0.046799
      2 C                     0.042504       0.292210
      3 H                     0.245391      -0.013791
      4 C                    -0.404905      -0.004719
      5 H                     0.171599      -0.000402
      6 C                     0.355545       0.081291
      7 H                     0.187704      -0.005192
      8 C                    -0.240709       0.197668
      9 C                    -0.236573       0.197448
     10 C                     0.356602       0.081133
     11 H                     0.187556      -0.005197
     12 C                    -0.404751      -0.004594
     13 H                     0.171635      -0.000403
     14 C                     0.043132       0.291804
     15 H                     0.245326      -0.013788
     16 S                     0.139759      -0.046670
  --------------------------------------------------------
  Sum of atomic charges =     1.000000
  Sum of spin   charges =     1.000000

 -----------------------------------------------------------------
                    Cartesian Multipole Moments
 -----------------------------------------------------------------
    Charge (ESU x 10^10)
                 4.8032
    Dipole Moment (Debye)
         X      -3.2694      Y       0.2397      Z     -10.1783
       Tot      10.6932
    Quadrupole Moments (Debye-Ang)
        XX     -31.7242     XY       1.8583     YY     -65.8601
        XZ      23.6471     YZ      -3.2201     ZZ     -31.7519
    Octopole Moments (Debye-Ang^2)
       XXX      94.0218    XXY      -4.9648    XYY      38.1797
       YYY      27.5706    XXZ      19.5111    XYZ      -0.0260
       YYZ     114.2196    XZZ     -28.4469    YZZ      26.4233
       ZZZ     272.5264
    Hexadecapole Moments (Debye-Ang^3)
      XXXX   -1296.1731   XXXY     -13.7684   XXYY    -308.5862
      XYYY     -75.4641   YYYY    -281.8756   XXXZ    -300.6059
      XXYZ      14.8991   XYYZ    -168.6267   YYYZ     -45.9743
      XXZZ    -263.7889   XYZZ     -48.5608   YYZZ    -368.4964
      XZZZ    -346.5783   YZZZ    -114.8746   ZZZZ   -1877.1361
 -----------------------------------------------------------------
 Calculating analytic gradient of the SCF energy
 Gradient of SCF Energy
            1           2           3           4           5           6
    1  -0.0077012   0.0027494  -0.0010771   0.0008005  -0.0000460  -0.0053988
    2   0.0047291   0.0032204  -0.0018501  -0.0000738   0.0008391  -0.0115122
    3   0.0033822  -0.0049780   0.0002677   0.0033401  -0.0014887  -0.0019157
            7           8           9          10          11          12
    1   0.0014849   0.0111587  -0.0069957  -0.0004960  -0.0007179  -0.0025062
    2   0.0004504   0.0043155   0.0011509   0.0036704   0.0005722  -0.0022220
    3  -0.0000830   0.0027433  -0.0099866   0.0124134  -0.0012829  -0.0002788
           13          14          15          16
    1   0.0013043   0.0026445  -0.0002729   0.0050697
    2   0.0008294   0.0038531   0.0000439  -0.0080163
    3  -0.0007384  -0.0045168   0.0021149   0.0010075
 Max gradient component =       1.241E-02
 RMS gradient           =       4.439E-03
 Gradient time:  CPU 1.94 s  wall 1.92 s
 Geometry Optimization Parameters
   NAtoms,    NIC,     NZ,  NCons,   NDum,   NFix, NCnnct, MaxDiis
       16     111       0       1       0       0       0       0

 Cartesian Hessian Update
 Hessian Updated using BFGS Update


** CONSTRAINED OPTIMIZATION IN DELOCALIZED INTERNAL COORDINATES **
   Searching for a Minimum

   Optimization Cycle:   2

                       Coordinates (Angstroms)
     ATOM                X               Y               Z
      1  S        -0.0462046104   -0.0068680256    0.0108039448
      2  C         1.6821354817    0.0015380256   -0.0097141725
      3  H         2.2180822861    0.0062031021    0.9317953026
      4  C         2.2226401909   -0.0056825008   -1.2922651697
      5  H         3.2861787952   -0.0280896717   -1.4992841115
      6  C         1.2351657968    0.0345227029   -2.2859855519
      7  H         1.4426325205    0.0452449757   -3.3501536448
      8  C        -0.0601024511    0.0563809420   -1.7528642327
      9  C        -1.3073302614    0.0357086263   -2.4752941154
     10  C        -1.8516924156    1.0554177736   -3.2666424013
     11  H        -1.3449130794    1.9937097162   -3.4628239761
     12  C        -3.1178514499    0.7251957027   -3.7689442503
     13  H        -3.7052903466    1.3799474597   -4.4020644548
     14  C        -3.5276167187   -0.5449846851   -3.3742749053
     15  H        -4.4441868641   -1.0556207691   -3.6444403601
     16  S        -2.4037199441   -1.3396360346   -2.3289535511
   Point Group: c1    Number of degrees of freedom:    42


   Energy is  -1104.550282266

              Constraints and their Current Values
                                        Value     Constraint
   Dihedral:        6   8   9  10      -70.000      -70.000
 Hessian Updated using BFGS Update

 40 Hessian modes will be used to form the next step
  Hessian Eigenvalues:
     0.030633    0.045000    0.045000    0.045000    0.045000    0.045002
     0.045002    0.045004    0.045010    0.045012    0.045423    0.159829
     0.159948    0.159967    0.159992    0.160000    0.160490    0.221282
     0.221806    0.237836    0.246838    0.250000    0.283515    0.294457
     0.300145    0.312569    0.313809    0.354716    0.354837    0.355110
     0.355130    0.358220    0.358325    0.377027    0.404881    0.426880
     0.458156    0.463583    0.497933    0.525879

 Minimum Search - Taking Simple RFO Step
 Searching for Lamda that Minimizes Along All modes
 Value Taken    Lamda =  -0.00447464
 Calculated Step too Large.  Step scaled by  0.913617
 Step Taken.  Stepsize is  0.300000

                             Maximum     Tolerance    Cnvgd?
         Gradient           0.008729      0.000300      NO
         Displacement       0.202156      0.001200      NO
         Energy change     -0.007001      0.000001      NO


 New Cartesian Coordinates Obtained by Inverse Iteration

 Displacement from previous Coordinates is:  0.473563
 ----------------------------------------------------------------
             Standard Nuclear Orientation (Angstroms)
    I     Atom           X                Y                Z
 ----------------------------------------------------------------
    1      S      -0.0467132131    -0.0799249443    -0.0016489057
    2      C       1.6737268108    -0.0467804962    -0.0006680900
    3      H       2.2076544375    -0.0673910969     0.9429558555
    4      C       2.2262265575     0.0118626170    -1.2840057332
    5      H       3.2925745579    -0.0044788443    -1.4741887576
    6      C       1.2512799602     0.0996178038    -2.2791204279
    7      H       1.4608906676     0.1436782116    -3.3414090777
    8      C      -0.0608233791     0.0933820811    -1.7605793395
    9      C      -1.2854262258     0.0260968203    -2.5054853757
   10      C      -1.8367216659     1.0308380837    -3.3283324058
   11      H      -1.3170420705     1.9551309972    -3.5518814913
   12      C      -3.1174471984     0.7135415891    -3.7842773592
   13      H      -3.7141731850     1.3542592876    -4.4223587972
   14      C      -3.5495966058    -0.5363497561    -3.3299070317
   15      H      -4.4778996872    -1.0390322686    -3.5781710439
   16      S      -2.4285828306    -1.3014627451    -2.2720276692
 ----------------------------------------------------------------
 Nuclear Repulsion Energy =   630.6235175285 hartrees
 There are       43 alpha and       42 beta electrons
 Applying Cartesian multipole field
    Component          Value
    ---------          -----
     (2,0,0)        1.00000E-11
     (0,2,0)        2.00000E-11
     (0,0,2)       -3.00000E-11
 Nucleus-field energy     =    -0.0000000327 hartrees
 Requested basis set is 6-31++G(d,p)
 There are 76 shells and 234 basis functions
 A cutoff of  1.0D-12 yielded   2529 shell pairs
 There are     24933 function pairs

 Q-Chem warning in module /project/projectdirs/jcesr/qchem/qc44/cnl_qc441/compile/cori/qc_src/libqints/qchem/aobasis.C, line 68:

 Using reconstructed effective core potential

 Smallest overlap matrix eigenvalue = 1.53E-06
 Guess MOs from SCF MO coefficient file
 Reading MOs from coefficient file
 Reading MOs from coefficient file
 An unrestricted hybrid HF-DFT SCF calculation will be
 performed using Pulay DIIS extrapolation
 Exchange:     0.2000 Hartree-Fock + 0.0800 Slater + 0.7200 B88
 Correlation:  0.1900 VWN1RPA + 0.8100 LYP
 Using SG-1 standard quadrature grid
 SCF converges when DIIS error is below 1.0E-08
 Geometry optimization detected.  Setting ReadMinima to 0
 Setting SaveMinima to 0
 ---------------------------------------
  Cycle       Energy         DIIS Error
 ---------------------------------------
    1   -1104.5039242791      2.42E-03
    2   -1104.5514114770      4.56E-04
    3   -1104.5478609871      8.11E-04
    4   -1104.5532363291      1.52E-04
    5   -1104.5534047681      5.26E-05
    6   -1104.5534255702      1.50E-05
    7   -1104.5534277991      6.26E-06
    8   -1104.5534283276      2.19E-06
    9   -1104.5534284888      7.90E-07
   10   -1104.5534285913      5.08E-07
   11   -1104.5534286227      3.90E-07
   12   -1104.5534286412      1.49E-07
   13   -1104.5534286444      4.66E-08
   14   -1104.5534286443      2.44E-08
   15   -1104.5534286436      6.31E-09 Convergence criterion met
 ---------------------------------------
 <S^2> = 0.7629
 SCF time:  CPU 10.31 s  wall 10.37 s
 SCF   energy in the final basis set = -1104.5534286436
 Total energy in the final basis set = -1104.5534286436
 
 --------------------------------------------------------------
 
                    Orbital Energies (a.u.)
 --------------------------------------------------------------
 
 Alpha MOs
 -- Occupied --
-89.098 -89.098 -10.432 -10.431 -10.417 -10.417 -10.390 -10.390
-10.379 -10.379  -8.157  -8.157  -6.121  -6.121  -6.117  -6.117
 -6.114  -6.114  -1.083  -1.059  -0.954  -0.928  -0.922  -0.879
 -0.784  -0.748  -0.734  -0.711  -0.697  -0.648  -0.593  -0.592
 -0.586  -0.579  -0.577  -0.555  -0.549  -0.533  -0.526  -0.450
 -0.439  -0.433  -0.406
 -- Virtual --
 -0.232  -0.208  -0.159  -0.144  -0.133  -0.132  -0.125  -0.106
 -0.095  -0.093  -0.093  -0.085  -0.080  -0.077  -0.065  -0.059
 -0.046  -0.043  -0.034  -0.029  -0.024  -0.018  -0.016  -0.003
 -0.000   0.003   0.006   0.006   0.014   0.016   0.022   0.024
  0.027   0.030   0.032   0.035   0.039   0.049   0.057   0.058
  0.061   0.062   0.069   0.079   0.084   0.094   0.094   0.107
  0.111   0.117   0.119   0.130   0.142   0.145   0.146   0.160
  0.173   0.179   0.182   0.195   0.217   0.223   0.231   0.250
  0.274   0.296   0.315   0.338   0.358   0.362   0.400   0.406
  0.412   0.436   0.457   0.458   0.487   0.492   0.500   0.501
  0.537   0.538   0.558   0.562   0.579   0.585   0.591   0.609
  0.611   0.632   0.632   0.655   0.671   0.726   0.730   0.768
  0.784   0.787   0.789   0.812   0.816   0.822   0.834   0.841
  0.851   0.866   0.879   0.888   0.908   0.925   0.933   0.947
  0.972   1.017   1.037   1.049   1.082   1.115   1.153   1.169
  1.169   1.177   1.189   1.203   1.245   1.302   1.302   1.354
  1.405   1.505   1.510   1.568   1.629   1.678   1.710   1.734
  1.744   1.749   1.773   1.775   1.840   1.848   1.878   1.900
  1.946   1.974   1.992   2.023   2.034   2.068   2.079   2.126
  2.199   2.207   2.246   2.268   2.293   2.293   2.316   2.337
  2.343   2.347   2.403   2.409   2.431   2.464   2.524   2.530
  2.588   2.621   2.691   2.695   2.748   2.979   3.004   3.106
  3.109   3.227   3.245   3.548   3.570   3.773   3.813   4.087
  4.122   4.136   4.151   4.246   4.342   4.485   4.529
 
 Beta MOs
 -- Occupied --
-89.098 -89.098 -10.429 -10.429 -10.413 -10.413 -10.389 -10.389
-10.379 -10.379  -8.157  -8.157  -6.121  -6.121  -6.117  -6.117
 -6.114  -6.114  -1.077  -1.053  -0.946  -0.926  -0.920  -0.869
 -0.779  -0.744  -0.729  -0.708  -0.696  -0.645  -0.589  -0.585
 -0.583  -0.575  -0.575  -0.542  -0.540  -0.532  -0.525  -0.437
 -0.433  -0.420
 -- Virtual --
 -0.341  -0.214  -0.193  -0.154  -0.141  -0.125  -0.123  -0.122
 -0.106  -0.094  -0.092  -0.091  -0.084  -0.078  -0.075  -0.064
 -0.058  -0.044  -0.041  -0.033  -0.028  -0.023  -0.017  -0.015
 -0.003   0.000   0.004   0.007   0.008   0.014   0.018   0.023
  0.025   0.028   0.032   0.034   0.035   0.040   0.050   0.059
  0.059   0.062   0.064   0.069   0.080   0.085   0.095   0.095
  0.108   0.112   0.119   0.120   0.132   0.143   0.146   0.147
  0.162   0.176   0.181   0.183   0.196   0.219   0.225   0.233
  0.252   0.277   0.298   0.316   0.340   0.358   0.363   0.404
  0.407   0.413   0.436   0.458   0.460   0.496   0.499   0.505
  0.509   0.539   0.540   0.560   0.564   0.582   0.592   0.597
  0.612   0.613   0.634   0.638   0.661   0.675   0.728   0.732
  0.774   0.787   0.788   0.793   0.814   0.818   0.822   0.836
  0.844   0.853   0.867   0.881   0.889   0.910   0.926   0.935
  0.948   0.976   1.020   1.043   1.055   1.084   1.119   1.158
  1.174   1.175   1.181   1.194   1.208   1.251   1.306   1.309
  1.359   1.413   1.517   1.524   1.577   1.634   1.683   1.713
  1.740   1.747   1.753   1.777   1.781   1.844   1.853   1.882
  1.907   1.954   1.983   1.999   2.036   2.045   2.074   2.083
  2.131   2.203   2.209   2.251   2.274   2.295   2.296   2.320
  2.342   2.346   2.352   2.407   2.413   2.434   2.469   2.528
  2.534   2.593   2.625   2.694   2.697   2.750   2.980   3.005
  3.106   3.109   3.228   3.246   3.550   3.571   3.774   3.814
  4.094   4.129   4.139   4.154   4.253   4.349   4.489   4.533
 --------------------------------------------------------------
 
          Ground-State Mulliken Net Atomic Charges

     Atom                 Charge (a.u.)    Spin (a.u.)
  --------------------------------------------------------
      1 S                     0.123380      -0.048466
      2 C                     0.039821       0.303410
      3 H                     0.248338      -0.014827
      4 C                    -0.389891      -0.014968
      5 H                     0.171521       0.000460
      6 C                     0.291588       0.098137
      7 H                     0.188626      -0.006484
      8 C                    -0.174967       0.182829
      9 C                    -0.171835       0.183068
     10 C                     0.291378       0.097889
     11 H                     0.188459      -0.006524
     12 C                    -0.389265      -0.014957
     13 H                     0.171598       0.000471
     14 C                     0.039811       0.303262
     15 H                     0.248178      -0.014838
     16 S                     0.123261      -0.048463
  --------------------------------------------------------
  Sum of atomic charges =     1.000000
  Sum of spin   charges =     1.000000

 -----------------------------------------------------------------
                    Cartesian Multipole Moments
 -----------------------------------------------------------------
    Charge (ESU x 10^10)
                 4.8032
    Dipole Moment (Debye)
         X      -3.3026      Y       0.1962      Z     -10.1205
       Tot      10.6475
    Quadrupole Moments (Debye-Ang)
        XX     -31.2846     XY       1.9567     YY     -66.1941
        XZ      23.5913     YZ      -3.8152     ZZ     -31.9290
    Octopole Moments (Debye-Ang^2)
       XXX      91.5516    XXY      -5.2378    XYY      39.2499
       YYY      28.2688    XXZ      19.2981    XYZ      -0.2778
       YYZ     115.0195    XZZ     -27.2736    YZZ      28.7482
       ZZZ     272.0764
    Hexadecapole Moments (Debye-Ang^3)
      XXXX   -1290.9922   XXXY     -11.3656   XXYY    -311.2143
      XYYY     -76.1366   YYYY    -274.9388   XXXZ    -293.1210
      XXYZ      16.3100   XYYZ    -171.2655   YYYZ     -35.4707
      XXZZ    -268.3834   XYZZ     -50.5125   YYZZ    -368.2612
      XZZZ    -348.7178   YZZZ    -114.7739   ZZZZ   -1870.4647
 -----------------------------------------------------------------
 Calculating analytic gradient of the SCF energy
 Gradient of SCF Energy
            1           2           3           4           5           6
    1  -0.0031699  -0.0010091  -0.0002059   0.0004910  -0.0001583   0.0013683
    2   0.0017809   0.0029064  -0.0009150  -0.0006666   0.0002726  -0.0107221
    3   0.0029356   0.0008499   0.0006304  -0.0029554  -0.0006183  -0.0012940
            7           8           9          10          11          12
    1   0.0006448   0.0028841   0.0010256  -0.0049404  -0.0006393   0.0011665
    2  -0.0002218   0.0112468  -0.0059269   0.0058972   0.0001607   0.0029086
    3   0.0002453   0.0035526  -0.0105281   0.0077113  -0.0002030   0.0000172
           13          14          15          16
    1   0.0006130   0.0015258  -0.0006541   0.0010579
    2   0.0003271  -0.0022981  -0.0002197  -0.0045301
    3  -0.0001843  -0.0016602   0.0008676   0.0006332
 Max gradient component =       1.125E-02
 RMS gradient           =       3.593E-03
 Gradient time:  CPU 1.93 s  wall 1.90 s
 Geometry Optimization Parameters
   NAtoms,    NIC,     NZ,  NCons,   NDum,   NFix, NCnnct, MaxDiis
       16     111       0       1       0       0       0       0

 Cartesian Hessian Update
 Hessian Updated using BFGS Update


** CONSTRAINED OPTIMIZATION IN DELOCALIZED INTERNAL COORDINATES **
   Searching for a Minimum

   Optimization Cycle:   3

                       Coordinates (Angstroms)
     ATOM                X               Y               Z
      1  S        -0.0467132131   -0.0799249443   -0.0016489057
      2  C         1.6737268108   -0.0467804962   -0.0006680900
      3  H         2.2076544375   -0.0673910969    0.9429558555
      4  C         2.2262265575    0.0118626170   -1.2840057332
      5  H         3.2925745579   -0.0044788443   -1.4741887576
      6  C         1.2512799602    0.0996178038   -2.2791204279
      7  H         1.4608906676    0.1436782116   -3.3414090777
      8  C        -0.0608233791    0.0933820811   -1.7605793395
      9  C        -1.2854262258    0.0260968203   -2.5054853757
     10  C        -1.8367216659    1.0308380837   -3.3283324058
     11  H        -1.3170420705    1.9551309972   -3.5518814913
     12  C        -3.1174471984    0.7135415891   -3.7842773592
     13  H        -3.7141731850    1.3542592876   -4.4223587972
     14  C        -3.5495966058   -0.5363497561   -3.3299070317
     15  H        -4.4778996872   -1.0390322686   -3.5781710439
     16  S        -2.4285828306   -1.3014627451   -2.2720276692
   Point Group: c1    Number of degrees of freedom:    42


   Energy is  -1104.553428644

              Constraints and their Current Values
                                        Value     Constraint
   Dihedral:        6   8   9  10      -70.000      -70.000
 Hessian Updated using BFGS Update

 40 Hessian modes will be used to form the next step
  Hessian Eigenvalues:
     0.016042    0.045000    0.045000    0.045000    0.045002    0.045002
     0.045004    0.045006    0.045011    0.045012    0.047480    0.159691
     0.159947    0.159964    0.159992    0.160000    0.160443    0.221283
     0.221776    0.237838    0.248369    0.250001    0.284619    0.294448
     0.298459    0.312569    0.312758    0.354781    0.354981    0.355129
     0.355203    0.358273    0.358725    0.378227    0.404882    0.425379
     0.459577    0.463585    0.497933    0.542215

 Minimum Search - Taking Simple RFO Step
 Searching for Lamda that Minimizes Along All modes
 Value Taken    Lamda =  -0.00309206
 Calculated Step too Large.  Step scaled by  0.773641
 Step Taken.  Stepsize is  0.300000

                             Maximum     Tolerance    Cnvgd?
         Gradient           0.006643      0.000300      NO
         Displacement       0.236536      0.001200      NO
         Energy change     -0.003146      0.000001      NO


 New Cartesian Coordinates Obtained by Inverse Iteration

 Displacement from previous Coordinates is:  0.530802
 ----------------------------------------------------------------
             Standard Nuclear Orientation (Angstroms)
    I     Atom           X                Y                Z
 ----------------------------------------------------------------
    1      S      -0.0527872163    -0.1483806389    -0.0222575723
    2      C       1.6623696818    -0.1053396015    -0.0007432958
    3      H       2.1919831052    -0.1596593929     0.9434613470
    4      C       2.2254092107     0.0362030199    -1.2730335311
    5      H       3.2943500726     0.0327835215    -1.4486930545
    6      C       1.2588630684     0.1681721701    -2.2677380155
    7      H       1.4718520854     0.2553853221    -3.3268830670
    8      C      -0.0650070965     0.1310364314    -1.7670445780
    9      C      -1.2615940669     0.0141010059    -2.5336749434
   10      C      -1.8174498212     0.9977087419    -3.3872320979
   11      H      -1.2824847295     1.9039176616    -3.6469031072
   12      C      -3.1125548687     0.6947387483    -3.8024874134
   13      H      -3.7138860820     1.3201236901    -4.4513599420
   14      C      -3.5685969174    -0.5179228781    -3.2763060912
   15      H      -4.5097542566    -1.0093622626    -3.4948934905
   16      S      -2.4427852392    -1.2605181988    -2.2153167973
 ----------------------------------------------------------------
 Nuclear Repulsion Energy =   632.0776775792 hartrees
 There are       43 alpha and       42 beta electrons
 Applying Cartesian multipole field
    Component          Value
    ---------          -----
     (2,0,0)        1.00000E-11
     (0,2,0)        2.00000E-11
     (0,0,2)       -3.00000E-11
 Nucleus-field energy     =    -0.0000000326 hartrees
 Requested basis set is 6-31++G(d,p)
 There are 76 shells and 234 basis functions
 A cutoff of  1.0D-12 yielded   2531 shell pairs
 There are     24941 function pairs

 Q-Chem warning in module /project/projectdirs/jcesr/qchem/qc44/cnl_qc441/compile/cori/qc_src/libqints/qchem/aobasis.C, line 68:

 Using reconstructed effective core potential

 Smallest overlap matrix eigenvalue = 2.18E-06
 Guess MOs from SCF MO coefficient file
 Reading MOs from coefficient file
 Reading MOs from coefficient file
 An unrestricted hybrid HF-DFT SCF calculation will be
 performed using Pulay DIIS extrapolation
 Exchange:     0.2000 Hartree-Fock + 0.0800 Slater + 0.7200 B88
 Correlation:  0.1900 VWN1RPA + 0.8100 LYP
 Using SG-1 standard quadrature grid
 SCF converges when DIIS error is below 1.0E-08
 Geometry optimization detected.  Setting ReadMinima to 0
 Setting SaveMinima to 0
 ---------------------------------------
  Cycle       Energy         DIIS Error
 ---------------------------------------
    1   -1104.5242582872      2.25E-03
    2   -1104.5532703940      4.35E-04
    3   -1104.5488103443      8.62E-04
    4   -1104.5549525057      1.30E-04
    5   -1104.5550764213      4.53E-05
    6   -1104.5550918729      1.41E-05
    7   -1104.5550939385      5.73E-06
    8   -1104.5550944109      2.23E-06
    9   -1104.5550945631      8.74E-07
   10   -1104.5550946730      4.44E-07
   11   -1104.5550947099      2.05E-07
   12   -1104.5550947149      1.22E-07
   13   -1104.5550947159      3.85E-08
   14   -1104.5550947162      1.72E-08
   15   -1104.5550947156      4.14E-09 Convergence criterion met
 ---------------------------------------
 <S^2> = 0.7643
 SCF time:  CPU 10.36 s  wall 9.86 s
 SCF   energy in the final basis set = -1104.5550947156
 Total energy in the final basis set = -1104.5550947156
 
 --------------------------------------------------------------
 
                    Orbital Energies (a.u.)
 --------------------------------------------------------------
 
 Alpha MOs
 -- Occupied --
-89.098 -89.098 -10.432 -10.431 -10.417 -10.417 -10.392 -10.392
-10.379 -10.379  -8.157  -8.157  -6.121  -6.121  -6.117  -6.117
 -6.114  -6.114  -1.084  -1.060  -0.956  -0.929  -0.922  -0.880
 -0.785  -0.750  -0.733  -0.711  -0.697  -0.649  -0.594  -0.593
 -0.588  -0.578  -0.578  -0.555  -0.549  -0.533  -0.524  -0.455
 -0.439  -0.434  -0.403
 -- Virtual --
 -0.236  -0.205  -0.158  -0.139  -0.134  -0.132  -0.125  -0.106
 -0.096  -0.095  -0.092  -0.083  -0.080  -0.077  -0.067  -0.058
 -0.047  -0.043  -0.035  -0.029  -0.024  -0.020  -0.016  -0.003
 -0.000   0.005   0.007   0.007   0.014   0.015   0.020   0.025
  0.028   0.029   0.034   0.037   0.039   0.048   0.057   0.058
  0.060   0.064   0.069   0.079   0.086   0.093   0.094   0.107
  0.113   0.119   0.119   0.129   0.143   0.144   0.147   0.160
  0.176   0.179   0.180   0.195   0.218   0.222   0.230   0.249
  0.268   0.293   0.317   0.330   0.353   0.361   0.395   0.408
  0.412   0.440   0.450   0.462   0.486   0.490   0.499   0.500
  0.534   0.542   0.557   0.561   0.578   0.587   0.589   0.604
  0.618   0.627   0.628   0.655   0.669   0.725   0.729   0.773
  0.777   0.782   0.788   0.815   0.816   0.819   0.836   0.841
  0.848   0.876   0.883   0.884   0.908   0.928   0.930   0.951
  0.971   1.014   1.037   1.043   1.079   1.113   1.135   1.160
  1.170   1.176   1.194   1.202   1.241   1.297   1.305   1.357
  1.422   1.494   1.512   1.549   1.635   1.684   1.709   1.734
  1.746   1.753   1.771   1.785   1.836   1.841   1.867   1.905
  1.939   1.972   1.986   2.010   2.042   2.073   2.087   2.122
  2.199   2.207   2.241   2.271   2.291   2.296   2.312   2.337
  2.343   2.346   2.404   2.411   2.431   2.473   2.523   2.532
  2.583   2.617   2.693   2.699   2.744   2.979   3.005   3.106
  3.109   3.227   3.241   3.547   3.568   3.769   3.821   4.088
  4.117   4.139   4.152   4.247   4.340   4.485   4.524
 
 Beta MOs
 -- Occupied --
-89.098 -89.098 -10.429 -10.429 -10.413 -10.413 -10.390 -10.390
-10.379 -10.379  -8.157  -8.157  -6.121  -6.121  -6.117  -6.117
 -6.114  -6.114  -1.078  -1.054  -0.948  -0.927  -0.920  -0.870
 -0.780  -0.746  -0.728  -0.708  -0.696  -0.646  -0.590  -0.585
 -0.585  -0.576  -0.574  -0.542  -0.539  -0.533  -0.523  -0.437
 -0.434  -0.424
 -- Virtual --
 -0.337  -0.216  -0.191  -0.153  -0.136  -0.125  -0.124  -0.123
 -0.105  -0.095  -0.094  -0.090  -0.083  -0.078  -0.075  -0.066
 -0.057  -0.045  -0.041  -0.034  -0.028  -0.024  -0.018  -0.015
 -0.003   0.000   0.006   0.008   0.009   0.015   0.017   0.022
  0.026   0.029   0.030   0.035   0.037   0.041   0.049   0.059
  0.059   0.061   0.066   0.069   0.080   0.087   0.094   0.095
  0.107   0.114   0.120   0.121   0.131   0.145   0.145   0.148
  0.162   0.179   0.181   0.181   0.196   0.219   0.224   0.232
  0.252   0.271   0.295   0.319   0.332   0.354   0.362   0.398
  0.409   0.413   0.441   0.452   0.463   0.493   0.497   0.506
  0.509   0.536   0.544   0.559   0.562   0.582   0.592   0.593
  0.606   0.621   0.630   0.634   0.661   0.673   0.726   0.731
  0.777   0.782   0.784   0.790   0.817   0.818   0.820   0.837
  0.844   0.850   0.877   0.885   0.886   0.910   0.929   0.932
  0.952   0.975   1.017   1.043   1.049   1.082   1.117   1.140
  1.162   1.175   1.182   1.202   1.205   1.247   1.304   1.309
  1.362   1.431   1.504   1.526   1.560   1.639   1.689   1.713
  1.740   1.749   1.756   1.776   1.791   1.841   1.846   1.872
  1.912   1.947   1.981   1.993   2.023   2.053   2.079   2.092
  2.128   2.203   2.209   2.246   2.277   2.294   2.298   2.316
  2.343   2.346   2.351   2.407   2.416   2.433   2.477   2.527
  2.536   2.588   2.620   2.697   2.701   2.746   2.980   3.007
  3.107   3.109   3.228   3.243   3.549   3.569   3.769   3.821
  4.094   4.124   4.142   4.155   4.253   4.347   4.489   4.528
 --------------------------------------------------------------
 
          Ground-State Mulliken Net Atomic Charges

     Atom                 Charge (a.u.)    Spin (a.u.)
  --------------------------------------------------------
      1 S                     0.111341      -0.052163
      2 C                     0.020808       0.312444
      3 H                     0.250313      -0.015631
      4 C                    -0.347947      -0.024352
      5 H                     0.171935       0.001214
      6 C                     0.180952       0.119588
      7 H                     0.189355      -0.008171
      8 C                    -0.076954       0.167119
      9 C                    -0.076169       0.167372
     10 C                     0.180906       0.119478
     11 H                     0.189241      -0.008224
     12 C                    -0.347593      -0.024503
     13 H                     0.172020       0.001233
     14 C                     0.020396       0.312503
     15 H                     0.250107      -0.015647
     16 S                     0.111289      -0.052256
  --------------------------------------------------------
  Sum of atomic charges =     1.000000
  Sum of spin   charges =     1.000000

 -----------------------------------------------------------------
                    Cartesian Multipole Moments
 -----------------------------------------------------------------
    Charge (ESU x 10^10)
                 4.8032
    Dipole Moment (Debye)
         X      -3.3158      Y       0.1788      Z     -10.0968
       Tot      10.6288
    Quadrupole Moments (Debye-Ang)
        XX     -30.9742     XY       1.9845     YY     -66.5302
        XZ      23.4193     YZ      -4.5005     ZZ     -32.0378
    Octopole Moments (Debye-Ang^2)
       XXX      89.3349    XXY      -5.1102    XYY      40.7015
       YYY      28.6872    XXZ      19.7059    XYZ      -0.4649
       YYZ     116.0287    XZZ     -25.9750    YZZ      31.3373
       ZZZ     271.0497
    Hexadecapole Moments (Debye-Ang^3)
      XXXX   -1279.7746   XXXY      -9.6356   XXYY    -313.4657
      XYYY     -76.3230   YYYY    -268.0047   XXXZ    -286.8065
      XXYZ      16.0350   XYYZ    -174.3140   YYYZ     -24.5745
      XXZZ    -274.1546   XYZZ     -52.9774   YYZZ    -368.0054
      XZZZ    -348.8078   YZZZ    -116.5068   ZZZZ   -1857.1012
 -----------------------------------------------------------------
 Calculating analytic gradient of the SCF energy
 Gradient of SCF Energy
            1           2           3           4           5           6
    1   0.0003466  -0.0023560   0.0001027  -0.0000698  -0.0000102   0.0031460
    2   0.0003904   0.0007745  -0.0000653   0.0001716  -0.0001407  -0.0110446
    3   0.0008990   0.0021096   0.0000999  -0.0036924   0.0001143   0.0010343
            7           8           9          10          11          12
    1  -0.0000555  -0.0047859   0.0094108  -0.0076358  -0.0002470   0.0022550
    2  -0.0006173   0.0174577  -0.0111752   0.0050060   0.0001383   0.0028488
    3   0.0000819   0.0025992  -0.0108842   0.0069849   0.0005476  -0.0003409
           13          14          15          16
    1  -0.0000973   0.0007225  -0.0001679  -0.0005582
    2  -0.0000128  -0.0029948   0.0000173  -0.0007538
    3   0.0000835   0.0009047  -0.0000333  -0.0005079
 Max gradient component =       1.746E-02
 RMS gradient           =       4.524E-03
 Gradient time:  CPU 1.99 s  wall 1.93 s
 Geometry Optimization Parameters
   NAtoms,    NIC,     NZ,  NCons,   NDum,   NFix, NCnnct, MaxDiis
       16     111       0       1       0       0       0       0

 Cartesian Hessian Update
 Hessian Updated using BFGS Update


** CONSTRAINED OPTIMIZATION IN DELOCALIZED INTERNAL COORDINATES **
   Searching for a Minimum

   Optimization Cycle:   4

                       Coordinates (Angstroms)
     ATOM                X               Y               Z
      1  S        -0.0527872163   -0.1483806389   -0.0222575723
      2  C         1.6623696818   -0.1053396015   -0.0007432958
      3  H         2.1919831052   -0.1596593929    0.9434613470
      4  C         2.2254092107    0.0362030199   -1.2730335311
      5  H         3.2943500726    0.0327835215   -1.4486930545
      6  C         1.2588630684    0.1681721701   -2.2677380155
      7  H         1.4718520854    0.2553853221   -3.3268830670
      8  C        -0.0650070965    0.1310364314   -1.7670445780
      9  C        -1.2615940669    0.0141010059   -2.5336749434
     10  C        -1.8174498212    0.9977087419   -3.3872320979
     11  H        -1.2824847295    1.9039176616   -3.6469031072
     12  C        -3.1125548687    0.6947387483   -3.8024874134
     13  H        -3.7138860820    1.3201236901   -4.4513599420
     14  C        -3.5685969174   -0.5179228781   -3.2763060912
     15  H        -4.5097542566   -1.0093622626   -3.4948934905
     16  S        -2.4427852392   -1.2605181988   -2.2153167973
   Point Group: c1    Number of degrees of freedom:    42


   Energy is  -1104.555094716

              Constraints and their Current Values
                                        Value     Constraint
   Dihedral:        6   8   9  10      -70.000      -70.000
 Hessian Updated using BFGS Update

 41 Hessian modes will be used to form the next step
  Hessian Eigenvalues:
     0.014496    0.045000    0.045000    0.045000    0.045001    0.045002
     0.045003    0.045004    0.045008    0.045012    0.045304    0.047332
     0.159915    0.159947    0.159982    0.159992    0.160000    0.162038
     0.221282    0.222003    0.237837    0.248666    0.250000    0.286269
     0.294454    0.297820    0.312569    0.324406    0.354785    0.355036
     0.355129    0.355269    0.358272    0.358683    0.380984    0.404882
     0.423699    0.459589    0.463585    0.497934    0.526787

 Minimum Search - Taking Simple RFO Step
 Searching for Lamda that Minimizes Along All modes
 Value Taken    Lamda =  -0.00074124
 Step Taken.  Stepsize is  0.208734

                             Maximum     Tolerance    Cnvgd?
         Gradient           0.003511      0.000300      NO
         Displacement       0.180237      0.001200      NO
         Energy change     -0.001666      0.000001      NO


 New Cartesian Coordinates Obtained by Inverse Iteration

 Displacement from previous Coordinates is:  0.395502
 ----------------------------------------------------------------
             Standard Nuclear Orientation (Angstroms)
    I     Atom           X                Y                Z
 ----------------------------------------------------------------
    1      S      -0.0577369376    -0.1935045232    -0.0362439435
    2      C       1.6572623503    -0.1479032122    -0.0035999174
    3      H       2.1829555966    -0.2315700170     0.9404797701
    4      C       2.2245770940     0.0543995659    -1.2631547324
    5      H       3.2943710920     0.0644857585    -1.4332025313
    6      C       1.2610012746     0.2165810261    -2.2570248062
    7      H       1.4782396528     0.3418410563    -3.3117936324
    8      C      -0.0681824869     0.1567538906    -1.7680527631
    9      C      -1.2471001932     0.0033210463    -2.5522884999
   10      C      -1.8033970288     0.9708853835    -3.4265425689
   11      H      -1.2571014262     1.8606061683    -3.7189651093
   12      C      -3.1095486088     0.6790478994    -3.8159740954
   13      H      -3.7087286379     1.2949195464    -4.4757933495
   14      C      -3.5827392881    -0.5011200513    -3.2395970281
   15      H      -4.5343181615    -0.9826904552    -3.4326445300
   16      S      -2.4516273612    -1.2330657426    -2.1767079129
 ----------------------------------------------------------------
 Nuclear Repulsion Energy =   632.8895230779 hartrees
 There are       43 alpha and       42 beta electrons
 Applying Cartesian multipole field
    Component          Value
    ---------          -----
     (2,0,0)        1.00000E-11
     (0,2,0)        2.00000E-11
     (0,0,2)       -3.00000E-11
 Nucleus-field energy     =    -0.0000000325 hartrees
 Requested basis set is 6-31++G(d,p)
 There are 76 shells and 234 basis functions
 A cutoff of  1.0D-12 yielded   2529 shell pairs
 There are     24905 function pairs

 Q-Chem warning in module /project/projectdirs/jcesr/qchem/qc44/cnl_qc441/compile/cori/qc_src/libqints/qchem/aobasis.C, line 68:

 Using reconstructed effective core potential

 Smallest overlap matrix eigenvalue = 2.77E-06
 Guess MOs from SCF MO coefficient file
 Reading MOs from coefficient file
 Reading MOs from coefficient file
 An unrestricted hybrid HF-DFT SCF calculation will be
 performed using Pulay DIIS extrapolation
 Exchange:     0.2000 Hartree-Fock + 0.0800 Slater + 0.7200 B88
 Correlation:  0.1900 VWN1RPA + 0.8100 LYP
 Using SG-1 standard quadrature grid
 SCF converges when DIIS error is below 1.0E-08
 Geometry optimization detected.  Setting ReadMinima to 0
 Setting SaveMinima to 0
 ---------------------------------------
  Cycle       Energy         DIIS Error
 ---------------------------------------
    1   -1104.5374129416      1.46E-03
    2   -1104.5549598554      2.32E-04
    3   -1104.5537232184      4.57E-04
    4   -1104.5554612692      7.24E-05
    5   -1104.5554993871      2.61E-05
    6   -1104.5555045244      1.01E-05
    7   -1104.5555055645      3.38E-06
    8   -1104.5555057485      1.49E-06
    9   -1104.5555058100      6.33E-07
   10   -1104.5555058617      3.02E-07
   11   -1104.5555058756      1.09E-07
   12   -1104.5555058773      3.45E-08
   13   -1104.5555058777      2.38E-08
   14   -1104.5555058769      9.83E-09 Convergence criterion met
 ---------------------------------------
 <S^2> = 0.7652
 SCF time:  CPU 9.71 s  wall 9.24 s
 SCF   energy in the final basis set = -1104.5555058769
 Total energy in the final basis set = -1104.5555058769
 
 --------------------------------------------------------------
 
                    Orbital Energies (a.u.)
 --------------------------------------------------------------
 
 Alpha MOs
 -- Occupied --
-89.098 -89.097 -10.432 -10.432 -10.417 -10.417 -10.393 -10.393
-10.378 -10.378  -8.157  -8.157  -6.121  -6.121  -6.117  -6.117
 -6.114  -6.113  -1.085  -1.060  -0.957  -0.930  -0.921  -0.881
 -0.786  -0.751  -0.732  -0.711  -0.698  -0.650  -0.595  -0.593
 -0.590  -0.579  -0.578  -0.554  -0.548  -0.534  -0.523  -0.458
 -0.439  -0.434  -0.402
 -- Virtual --
 -0.238  -0.204  -0.159  -0.136  -0.135  -0.132  -0.125  -0.106
 -0.097  -0.096  -0.091  -0.083  -0.080  -0.076  -0.069  -0.057
 -0.048  -0.042  -0.036  -0.027  -0.025  -0.020  -0.016  -0.004
 -0.000   0.007   0.008   0.008   0.013   0.015   0.019   0.025
  0.026   0.030   0.035   0.039   0.040   0.046   0.056   0.058
  0.059   0.066   0.070   0.080   0.087   0.092   0.094   0.107
  0.115   0.118   0.120   0.130   0.142   0.145   0.147   0.160
  0.176   0.177   0.180   0.195   0.218   0.221   0.230   0.248
  0.265   0.292   0.321   0.323   0.351   0.361   0.392   0.405
  0.414   0.440   0.449   0.465   0.485   0.487   0.499   0.499
  0.532   0.539   0.556   0.561   0.576   0.584   0.592   0.599
  0.622   0.626   0.626   0.656   0.668   0.724   0.728   0.768
  0.775   0.781   0.787   0.815   0.816   0.820   0.834   0.842
  0.847   0.881   0.883   0.885   0.908   0.930   0.930   0.952
  0.970   1.012   1.037   1.041   1.076   1.109   1.111   1.155
  1.168   1.182   1.191   1.208   1.241   1.297   1.303   1.357
  1.435   1.482   1.513   1.541   1.635   1.689   1.710   1.731
  1.745   1.754   1.770   1.793   1.835   1.835   1.863   1.906
  1.934   1.970   1.982   2.001   2.048   2.075   2.092   2.119
  2.199   2.207   2.239   2.271   2.291   2.296   2.310   2.338
  2.341   2.348   2.404   2.412   2.431   2.477   2.522   2.533
  2.577   2.614   2.695   2.701   2.740   2.979   3.005   3.106
  3.108   3.227   3.239   3.546   3.566   3.766   3.826   4.088
  4.115   4.141   4.153   4.247   4.339   4.485   4.520
 
 Beta MOs
 -- Occupied --
-89.098 -89.098 -10.430 -10.429 -10.413 -10.413 -10.391 -10.391
-10.379 -10.379  -8.157  -8.157  -6.121  -6.121  -6.117  -6.117
 -6.114  -6.114  -1.079  -1.054  -0.949  -0.927  -0.919  -0.870
 -0.781  -0.747  -0.727  -0.708  -0.696  -0.647  -0.591  -0.586
 -0.585  -0.577  -0.574  -0.542  -0.539  -0.533  -0.521  -0.436
 -0.435  -0.427
 -- Virtual --
 -0.336  -0.218  -0.190  -0.152  -0.133  -0.125  -0.125  -0.122
 -0.105  -0.096  -0.095  -0.089  -0.082  -0.078  -0.075  -0.068
 -0.056  -0.046  -0.041  -0.035  -0.027  -0.025  -0.019  -0.015
 -0.003   0.001   0.007   0.008   0.010   0.015   0.016   0.021
  0.026   0.028   0.031   0.037   0.039   0.041   0.047   0.058
  0.059   0.060   0.068   0.070   0.081   0.088   0.093   0.095
  0.108   0.115   0.119   0.122   0.132   0.144   0.146   0.148
  0.161   0.178   0.180   0.182   0.196   0.219   0.223   0.232
  0.250   0.267   0.293   0.323   0.326   0.352   0.362   0.395
  0.406   0.415   0.441   0.450   0.466   0.490   0.495   0.506
  0.509   0.535   0.542   0.559   0.562   0.580   0.590   0.595
  0.601   0.627   0.628   0.631   0.663   0.672   0.725   0.730
  0.773   0.777   0.784   0.790   0.817   0.818   0.821   0.835
  0.845   0.849   0.883   0.884   0.888   0.910   0.931   0.931
  0.953   0.974   1.015   1.044   1.046   1.079   1.113   1.115
  1.160   1.173   1.187   1.199   1.211   1.247   1.304   1.307
  1.363   1.445   1.491   1.526   1.552   1.639   1.694   1.713
  1.737   1.749   1.756   1.775   1.800   1.840   1.840   1.869
  1.912   1.943   1.978   1.989   2.013   2.059   2.082   2.097
  2.124   2.203   2.209   2.244   2.278   2.293   2.298   2.314
  2.343   2.344   2.353   2.408   2.417   2.433   2.482   2.526
  2.537   2.582   2.617   2.698   2.702   2.743   2.980   3.006
  3.106   3.108   3.228   3.241   3.548   3.567   3.766   3.826
  4.094   4.122   4.144   4.156   4.254   4.346   4.488   4.524
 --------------------------------------------------------------
 
          Ground-State Mulliken Net Atomic Charges

     Atom                 Charge (a.u.)    Spin (a.u.)
  --------------------------------------------------------
      1 S                     0.110799      -0.056068
      2 C                    -0.003637       0.316895
      3 H                     0.251096      -0.015943
      4 C                    -0.308698      -0.030996
      5 H                     0.172303       0.001657
      6 C                     0.087443       0.136615
      7 H                     0.190043      -0.009307
      8 C                     0.000741       0.157254
      9 C                     0.000792       0.157207
     10 C                     0.088055       0.136657
     11 H                     0.189995      -0.009336
     12 C                    -0.308981      -0.031224
     13 H                     0.172355       0.001678
     14 C                    -0.003858       0.317020
     15 H                     0.250939      -0.015953
     16 S                     0.110612      -0.056155
  --------------------------------------------------------
  Sum of atomic charges =     1.000000
  Sum of spin   charges =     1.000000

 -----------------------------------------------------------------
                    Cartesian Multipole Moments
 -----------------------------------------------------------------
    Charge (ESU x 10^10)
                 4.8032
    Dipole Moment (Debye)
         X      -3.3139      Y       0.1819      Z     -10.1001
       Tot      10.6315
    Quadrupole Moments (Debye-Ang)
        XX     -30.7861     XY       1.9888     YY     -66.7623
        XZ      23.2606     YZ      -5.0354     ZZ     -32.0343
    Octopole Moments (Debye-Ang^2)
       XXX      87.9459    XXY      -4.8563    XYY      41.8785
       YYY      28.9510    XXZ      20.1024    XYZ      -0.5955
       YYZ     116.7398    XZZ     -25.0531    YZZ      33.3703
       ZZZ     269.7164
    Hexadecapole Moments (Debye-Ang^3)
      XXXX   -1272.3428   XXXY      -8.7468   XXYY    -315.3804
      XYYY     -76.5859   YYYY    -263.9399   XXXZ    -283.6973
      XXYZ      15.1309   XYYZ    -176.8249   YYYZ     -17.4152
      XXZZ    -278.8122   XYZZ     -54.9139   YYZZ    -367.8800
      XZZZ    -348.5421   YZZZ    -119.3925   ZZZZ   -1844.5218
 -----------------------------------------------------------------
 Calculating analytic gradient of the SCF energy
 Gradient of SCF Energy
            1           2           3           4           5           6
    1   0.0011858  -0.0015269   0.0001970   0.0000345   0.0000150   0.0024006
    2  -0.0001627  -0.0006529   0.0003506   0.0005348  -0.0002683  -0.0116773
    3  -0.0001726   0.0011521  -0.0000636  -0.0016137   0.0002970   0.0016965
            7           8           9          10          11          12
    1  -0.0002907  -0.0070885   0.0125903  -0.0078526   0.0000180   0.0011202
    2  -0.0005731   0.0218047  -0.0144651   0.0044360   0.0001913   0.0010629
    3  -0.0000986   0.0030970  -0.0129471   0.0079444   0.0006454  -0.0005251
           13          14          15          16
    1  -0.0002748   0.0000581   0.0000579  -0.0006439
    2  -0.0000973  -0.0013126   0.0000282   0.0008008
    3   0.0001870   0.0014494  -0.0004403  -0.0006077
 Max gradient component =       2.180E-02
 RMS gradient           =       5.358E-03
 Gradient time:  CPU 1.90 s  wall 1.90 s
 Geometry Optimization Parameters
   NAtoms,    NIC,     NZ,  NCons,   NDum,   NFix, NCnnct, MaxDiis
       16     111       0       1       0       0       0       0

 Cartesian Hessian Update
 Hessian Updated using BFGS Update


** CONSTRAINED OPTIMIZATION IN DELOCALIZED INTERNAL COORDINATES **
   Searching for a Minimum

   Optimization Cycle:   5

                       Coordinates (Angstroms)
     ATOM                X               Y               Z
      1  S        -0.0577369376   -0.1935045232   -0.0362439435
      2  C         1.6572623503   -0.1479032122   -0.0035999174
      3  H         2.1829555966   -0.2315700170    0.9404797701
      4  C         2.2245770940    0.0543995659   -1.2631547324
      5  H         3.2943710920    0.0644857585   -1.4332025313
      6  C         1.2610012746    0.2165810261   -2.2570248062
      7  H         1.4782396528    0.3418410563   -3.3117936324
      8  C        -0.0681824869    0.1567538906   -1.7680527631
      9  C        -1.2471001932    0.0033210463   -2.5522884999
     10  C        -1.8033970288    0.9708853835   -3.4265425689
     11  H        -1.2571014262    1.8606061683   -3.7189651093
     12  C        -3.1095486088    0.6790478994   -3.8159740954
     13  H        -3.7087286379    1.2949195464   -4.4757933495
     14  C        -3.5827392881   -0.5011200513   -3.2395970281
     15  H        -4.5343181615   -0.9826904552   -3.4326445300
     16  S        -2.4516273612   -1.2330657426   -2.1767079129
   Point Group: c1    Number of degrees of freedom:    42


   Energy is  -1104.555505877

              Constraints and their Current Values
                                        Value     Constraint
   Dihedral:        6   8   9  10      -70.000      -70.000
 Hessian Updated using BFGS Update

 41 Hessian modes will be used to form the next step
  Hessian Eigenvalues:
     0.014389    0.045000    0.045000    0.045000    0.045001    0.045002
     0.045003    0.045005    0.045008    0.045012    0.045452    0.046575
     0.159942    0.159947    0.159991    0.159993    0.160001    0.161695
     0.221282    0.222120    0.237835    0.248692    0.250001    0.286937
     0.294468    0.297217    0.312569    0.322496    0.354781    0.354989
     0.355128    0.355196    0.358270    0.358646    0.380126    0.404882
     0.423961    0.459806    0.463585    0.497931    0.510494

 Minimum Search - Taking Simple RFO Step
 Searching for Lamda that Minimizes Along All modes
 Value Taken    Lamda =  -0.00005355
 Step Taken.  Stepsize is  0.034347

                             Maximum     Tolerance    Cnvgd?
         Gradient           0.001786      0.000300      NO
         Displacement       0.029096      0.001200      NO
         Energy change     -0.000411      0.000001      NO


 New Cartesian Coordinates Obtained by Inverse Iteration

 Displacement from previous Coordinates is:  0.064519
 ----------------------------------------------------------------
             Standard Nuclear Orientation (Angstroms)
    I     Atom           X                Y                Z
 ----------------------------------------------------------------
    1      S      -0.0594546937    -0.1974819332    -0.0371413186
    2      C       1.6571888876    -0.1533282358    -0.0041822803
    3      H       2.1813752944    -0.2445655862     0.9400216942
    4      C       2.2241229740     0.0562465344    -1.2613446277
    5      H       3.2936780375     0.0701746921    -1.4328766219
    6      C       1.2603263478     0.2227515179    -2.2553744804
    7      H       1.4798498805     0.3578856584    -3.3084898338
    8      C      -0.0683035553     0.1600190241    -1.7673948826
    9      C      -1.2458667307     0.0015154356    -2.5546892042
   10      C      -1.8011156237     0.9667849302    -3.4309149890
   11      H      -1.2529682063     1.8523001062    -3.7326008526
   12      C      -3.1093988946     0.6766438991    -3.8170686395
   13      H      -3.7058664971     1.2920551094    -4.4798170016
   14      C      -3.5848473733    -0.4985298041    -3.2352689817
   15      H      -4.5388515117    -0.9779437958    -3.4214490201
   16      S      -2.4519414054    -1.2315402124    -2.1725146103
 ----------------------------------------------------------------
 Nuclear Repulsion Energy =   632.9193674373 hartrees
 There are       43 alpha and       42 beta electrons
 Applying Cartesian multipole field
    Component          Value
    ---------          -----
     (2,0,0)        1.00000E-11
     (0,2,0)        2.00000E-11
     (0,0,2)       -3.00000E-11
 Nucleus-field energy     =    -0.0000000325 hartrees
 Requested basis set is 6-31++G(d,p)
 There are 76 shells and 234 basis functions
 A cutoff of  1.0D-12 yielded   2529 shell pairs
 There are     24905 function pairs

 Q-Chem warning in module /project/projectdirs/jcesr/qchem/qc44/cnl_qc441/compile/cori/qc_src/libqints/qchem/aobasis.C, line 68:

 Using reconstructed effective core potential

 Smallest overlap matrix eigenvalue = 2.84E-06
 Guess MOs from SCF MO coefficient file
 Reading MOs from coefficient file
 Reading MOs from coefficient file
 An unrestricted hybrid HF-DFT SCF calculation will be
 performed using Pulay DIIS extrapolation
 Exchange:     0.2000 Hartree-Fock + 0.0800 Slater + 0.7200 B88
 Correlation:  0.1900 VWN1RPA + 0.8100 LYP
 Using SG-1 standard quadrature grid
 SCF converges when DIIS error is below 1.0E-08
[...]
    9   -1104.5555559075      7.50E-09 Convergence criterion met
 ---------------------------------------
 <S^2> = 0.7654
 SCF time:  CPU 5.94 s  wall 5.68 s
 SCF   energy in the final basis set = -1104.5555559075
 Total energy in the final basis set = -1104.5555559075
 
 --------------------------------------------------------------
 
                    Orbital Energies (a.u.)
 --------------------------------------------------------------
 
 Alpha MOs
 -- Occupied --
-89.097 -89.097 -10.432 -10.432 -10.417 -10.417 -10.393 -10.393
-10.378 -10.378  -8.156  -8.156  -6.121  -6.121  -6.117  -6.117
 -6.113  -6.113  -1.085  -1.060  -0.957  -0.929  -0.921  -0.881
 -0.786  -0.751  -0.732  -0.711  -0.698  -0.650  -0.594  -0.593
 -0.590  -0.579  -0.579  -0.554  -0.548  -0.534  -0.523  -0.458
 -0.439  -0.434  -0.402
 -- Virtual --
 -0.238  -0.203  -0.159  -0.137  -0.135  -0.132  -0.125  -0.106
 -0.098  -0.096  -0.091  -0.083  -0.080  -0.076  -0.069  -0.058
 -0.048  -0.042  -0.036  -0.027  -0.025  -0.020  -0.016  -0.004
  0.000   0.007   0.007   0.008   0.012   0.015   0.019   0.025
  0.026   0.030   0.036   0.039   0.040   0.046   0.056   0.058
  0.059   0.066   0.070   0.080   0.087   0.092   0.094   0.107
  0.115   0.118   0.119   0.131   0.142   0.145   0.147   0.160
  0.175   0.177   0.180   0.195   0.218   0.221   0.230   0.248
  0.264   0.293   0.322   0.322   0.351   0.361   0.392   0.404
  0.414   0.441   0.449   0.465   0.485   0.486   0.499   0.499
  0.532   0.538   0.556   0.561   0.575   0.584   0.592   0.597
  0.622   0.626   0.627   0.657   0.668   0.724   0.729   0.766
  0.776   0.782   0.786   0.815   0.817   0.821   0.835   0.841
  0.847   0.880   0.883   0.886   0.908   0.930   0.930   0.952
  0.970   1.012   1.037   1.040   1.075   1.108   1.109   1.156
  1.169   1.186   1.191   1.206   1.239   1.302   1.302   1.354
  1.435   1.482   1.512   1.539   1.634   1.690   1.711   1.730
  1.744   1.753   1.770   1.794   1.834   1.837   1.863   1.906
  1.935   1.969   1.982   1.998   2.049   2.074   2.094   2.118
  2.198   2.207   2.240   2.270   2.291   2.295   2.310   2.337
  2.341   2.347   2.404   2.412   2.430   2.478   2.522   2.533
  2.577   2.613   2.695   2.700   2.741   2.980   3.004   3.106
  3.107   3.228   3.239   3.546   3.566   3.766   3.826   4.087
  4.115   4.141   4.154   4.247   4.339   4.485   4.520
 
 Beta MOs
 -- Occupied --
-89.098 -89.098 -10.430 -10.429 -10.413 -10.413 -10.391 -10.391
-10.379 -10.379  -8.157  -8.157  -6.121  -6.121  -6.117  -6.117
 -6.114  -6.114  -1.079  -1.054  -0.949  -0.927  -0.919  -0.871
 -0.781  -0.747  -0.727  -0.708  -0.696  -0.647  -0.591  -0.586
 -0.584  -0.577  -0.575  -0.542  -0.539  -0.533  -0.521  -0.436
 -0.435  -0.428
 -- Virtual --
 -0.336  -0.218  -0.190  -0.153  -0.134  -0.126  -0.125  -0.122
 -0.105  -0.096  -0.095  -0.089  -0.082  -0.078  -0.075  -0.068
 -0.056  -0.046  -0.041  -0.035  -0.027  -0.025  -0.019  -0.015
 -0.003   0.001   0.008   0.008   0.010   0.015   0.016   0.020
  0.026   0.028   0.031   0.037   0.039   0.041   0.047   0.058
  0.059   0.060   0.068   0.070   0.081   0.088   0.093   0.095
  0.107   0.115   0.119   0.121   0.133   0.144   0.146   0.148
  0.162   0.177   0.179   0.182   0.196   0.220   0.222   0.232
  0.250   0.266   0.294   0.324   0.325   0.352   0.363   0.394
  0.406   0.415   0.441   0.450   0.466   0.489   0.494   0.506
  0.509   0.535   0.542   0.559   0.561   0.579   0.590   0.595
  0.600   0.627   0.628   0.631   0.663   0.673   0.725   0.731
  0.771   0.778   0.786   0.788   0.817   0.819   0.821   0.837
  0.844   0.849   0.882   0.885   0.888   0.910   0.931   0.932
  0.953   0.975   1.015   1.043   1.046   1.079   1.112   1.113
  1.161   1.173   1.191   1.199   1.208   1.245   1.306   1.309
  1.359   1.445   1.490   1.526   1.550   1.638   1.695   1.714
  1.737   1.748   1.755   1.775   1.801   1.839   1.841   1.868
  1.912   1.944   1.978   1.989   2.010   2.059   2.081   2.099
  2.123   2.203   2.210   2.245   2.277   2.294   2.297   2.314
  2.343   2.344   2.353   2.408   2.417   2.433   2.482   2.526
  2.536   2.582   2.617   2.698   2.702   2.744   2.981   3.006
  3.106   3.108   3.229   3.241   3.548   3.567   3.766   3.826
  4.094   4.122   4.144   4.156   4.254   4.346   4.489   4.523
 --------------------------------------------------------------
 
          Ground-State Mulliken Net Atomic Charges

     Atom                 Charge (a.u.)    Spin (a.u.)
  --------------------------------------------------------
      1 S                     0.111237      -0.057450
      2 C                    -0.006826       0.317427
      3 H                     0.251205      -0.015914
      4 C                    -0.305552      -0.033496
      5 H                     0.172021       0.001745
      6 C                     0.077501       0.141593
      7 H                     0.190182      -0.009424
      8 C                     0.010586       0.155619
      9 C                     0.010244       0.155677
     10 C                     0.077873       0.141310
     11 H                     0.190149      -0.009434
     12 C                    -0.305762      -0.033495
     13 H                     0.172067       0.001750
     14 C                    -0.007158       0.317458
     15 H                     0.251074      -0.015921
     16 S                     0.111157      -0.057442
  --------------------------------------------------------
  Sum of atomic charges =     1.000000
  Sum of spin   charges =     1.000000

 -----------------------------------------------------------------
                    Cartesian Multipole Moments
 -----------------------------------------------------------------
    Charge (ESU x 10^10)
                 4.8032
    Dipole Moment (Debye)
         X      -3.3076      Y       0.1913      Z     -10.1130
       Tot      10.6419
    Quadrupole Moments (Debye-Ang)
        XX     -30.7993     XY       2.0043     YY     -66.7985
        XZ      23.1774     YZ      -5.1927     ZZ     -31.9673
    Octopole Moments (Debye-Ang^2)
       XXX      87.8308    XXY      -4.7811    XYY      42.1293
       YYY      28.9896    XXZ      20.3053    XYZ      -0.6711
       YYZ     116.8040    XZZ     -24.6740    YZZ      34.0532
       ZZZ     269.1038
    Hexadecapole Moments (Debye-Ang^3)
      XXXX   -1271.0219   XXXY      -8.6347   XXYY    -315.6605
      XYYY     -76.7749   YYYY    -263.8734   XXXZ    -284.4765
      XXYZ      14.5228   XYYZ    -177.3444   YYYZ     -16.6484
      XXZZ    -280.5255   XYZZ     -55.5338   YYZZ    -367.7254
      XZZZ    -349.2459   YZZZ    -122.0815   ZZZZ   -1840.4124
 -----------------------------------------------------------------
 Calculating analytic gradient of the SCF energy
 Gradient of SCF Energy
            1           2           3           4           5           6
    1  -0.0000685   0.0000671  -0.0000165   0.0000076  -0.0000033   0.0008598
    2  -0.0000228  -0.0000575   0.0000063  -0.0000092  -0.0000159  -0.0124344
    3   0.0000292  -0.0000708   0.0000122   0.0001132  -0.0000091   0.0010528
            7           8           9          10          11          12
    1   0.0000191  -0.0054907   0.0114989  -0.0068139  -0.0000161  -0.0000630
    2  -0.0000277   0.0224681  -0.0144877   0.0045163   0.0000293  -0.0000637
    3   0.0000043   0.0038202  -0.0144071   0.0094585   0.0000203  -0.0000016
           13          14          15          16
    1   0.0000184  -0.0000237   0.0000129   0.0000119
    2   0.0000299   0.0001206  -0.0000060  -0.0000456
    3  -0.0000024  -0.0000280  -0.0000289   0.0000373
 Max gradient component =       2.247E-02
 RMS gradient           =       5.424E-03
 Gradient time:  CPU 1.91 s  wall 1.90 s
 Geometry Optimization Parameters
   NAtoms,    NIC,     NZ,  NCons,   NDum,   NFix, NCnnct, MaxDiis
       16     111       0       1       0       0       0       0

 Cartesian Hessian Update
 Hessian Updated using BFGS Update


** CONSTRAINED OPTIMIZATION IN DELOCALIZED INTERNAL COORDINATES **
   Searching for a Minimum

   Optimization Cycle:   8

                       Coordinates (Angstroms)
     ATOM                X               Y               Z
      1  S        -0.0606567674   -0.1972490699   -0.0368414216
      2  C         1.6574703296   -0.1537900401   -0.0043339709
      3  H         2.1804010849   -0.2507993832    0.9399795231
      4  C         2.2237328102    0.0559394807   -1.2608616416
      5  H         3.2929969505    0.0728188054   -1.4340951954
      6  C         1.2594262345    0.2235267727   -2.2549688614
      7  H         1.4807231103    0.3664146205   -3.3066857001
      8  C        -0.0685044272    0.1603186315   -1.7666556851
      9  C        -1.2460001411    0.0007876518   -2.5547424144
     10  C        -1.8003919210    0.9657165473   -3.4309670377
     11  H        -1.2507359349    1.8477819387   -3.7399309939
     12  C        -3.1095298498    0.6762316659   -3.8165889340
     13  H        -3.7035755519    1.2917502398   -4.4814429407
     14  C        -3.5851418663   -0.4980825862   -3.2350666280
     15  H        -4.5409357979   -0.9759263709   -3.4159530937
     16  S        -2.4513513324   -1.2324515639   -2.1719506546
   Point Group: c1    Number of degrees of freedom:    42


   Energy is  -1104.555555908

              Constraints and their Current Values
                                        Value     Constraint
   Dihedral:        6   8   9  10      -70.000      -70.000
 Hessian Updated using BFGS Update

 41 Hessian modes will be used to form the next step
  Hessian Eigenvalues:
     0.015292    0.019916    0.044719    0.045000    0.045000    0.045000
     0.045002    0.045003    0.045005    0.045012    0.045053    0.046640
     0.150410    0.159616    0.159951    0.159991    0.160001    0.160051
     0.221283    0.221829    0.237842    0.247420    0.249992    0.279173
     0.288677    0.294614    0.295354    0.312567    0.354778    0.354953
     0.355126    0.355134    0.358273    0.358674    0.383011    0.404906
     0.423661    0.450565    0.463575    0.493338    0.497959

 Minimum Search - Taking Simple RFO Step
 Searching for Lamda that Minimizes Along All modes
 Value Taken    Lamda =   0.00000000
 Step Taken.  Stepsize is  0.002745

                             Maximum     Tolerance    Cnvgd?
         Gradient           0.000126      0.000300     YES
         Displacement       0.002204      0.001200      NO
         Energy change     -0.000001      0.000001     YES

 Final energy is   -1104.55555590752     


 ******************************
 **  OPTIMIZATION CONVERGED  **
 ******************************

                       Coordinates (Angstroms)
     ATOM                X               Y               Z
      1  S        -0.0606567674   -0.1972490699   -0.0368414216
      2  C         1.6574703296   -0.1537900401   -0.0043339709
      3  H         2.1804010849   -0.2507993832    0.9399795231
      4  C         2.2237328102    0.0559394807   -1.2608616416
      5  H         3.2929969505    0.0728188054   -1.4340951954
      6  C         1.2594262345    0.2235267727   -2.2549688614
      7  H         1.4807231103    0.3664146205   -3.3066857001
      8  C        -0.0685044272    0.1603186315   -1.7666556851
      9  C        -1.2460001411    0.0007876518   -2.5547424144
     10  C        -1.8003919210    0.9657165473   -3.4309670377
     11  H        -1.2507359349    1.8477819387   -3.7399309939
     12  C        -3.1095298498    0.6762316659   -3.8165889340
     13  H        -3.7035755519    1.2917502398   -4.4814429407
     14  C        -3.5851418663   -0.4980825862   -3.2350666280
     15  H        -4.5409357979   -0.9759263709   -3.4159530937
     16  S        -2.4513513324   -1.2324515639   -2.1719506546

Z-matrix Print:
$molecule
1 2
S 
C  1 1.718984
H  2 1.083788 1 119.767174
C  2 1.394095 1 113.125258 3 -177.962951 0
H  4 1.083338 2 123.187554 1 -177.501908 0
C  4 1.395071 2 112.307357 1 1.820488 0
H  6 1.084204 4 124.470360 2 -177.916225 0
C  6 1.416279 4 113.394173 2 0.738889 0
C  8 1.425843 6 126.067204 4 -165.267348 0
C  9 1.416407 8 126.081532 6 -69.999999 0
H  10 1.084260 9 122.145394 8 13.448967 0
C  10 1.395116 9 113.385779 8 -165.194479 0
H  12 1.083413 10 124.489473 9 -179.987099 0
C  12 1.394055 10 112.311086 9 0.723404 0
H  14 1.083788 12 127.060712 10 -175.914164 0
S  14 1.719010 12 113.130337 10 1.812204 0
$end

 
 --------------------------------------------------------------
 
                    Orbital Energies (a.u.)
 --------------------------------------------------------------
 
 Alpha MOs
 -- Occupied --
-89.097 -89.097 -10.432 -10.432 -10.417 -10.417 -10.393 -10.393
-10.378 -10.378  -8.156  -8.156  -6.121  -6.121  -6.117  -6.117
 -6.113  -6.113  -1.085  -1.060  -0.957  -0.929  -0.921  -0.881
 -0.786  -0.751  -0.732  -0.711  -0.698  -0.650  -0.594  -0.593
 -0.590  -0.579  -0.579  -0.554  -0.548  -0.534  -0.523  -0.458
 -0.439  -0.434  -0.402
 -- Virtual --
 -0.238  -0.203  -0.159  -0.137  -0.135  -0.132  -0.125  -0.106
 -0.098  -0.096  -0.091  -0.083  -0.080  -0.076  -0.069  -0.058
 -0.048  -0.042  -0.036  -0.027  -0.025  -0.020  -0.016  -0.004
  0.000   0.007   0.007   0.008   0.012   0.015   0.019   0.025
  0.026   0.030   0.036   0.039   0.040   0.046   0.056   0.058
  0.059   0.066   0.070   0.080   0.087   0.092   0.094   0.107
  0.115   0.118   0.119   0.131   0.142   0.145   0.147   0.160
  0.175   0.177   0.180   0.195   0.218   0.221   0.230   0.248
  0.264   0.293   0.322   0.322   0.351   0.361   0.392   0.404
  0.414   0.441   0.449   0.465   0.485   0.486   0.499   0.499
  0.532   0.538   0.556   0.561   0.575   0.584   0.592   0.597
  0.622   0.626   0.627   0.657   0.668   0.724   0.729   0.766
  0.776   0.782   0.786   0.815   0.817   0.821   0.835   0.841
  0.847   0.880   0.883   0.886   0.908   0.930   0.930   0.952
  0.970   1.012   1.037   1.040   1.075   1.108   1.109   1.156
  1.169   1.186   1.191   1.206   1.239   1.302   1.302   1.354
  1.435   1.482   1.512   1.539   1.634   1.690   1.711   1.730
  1.744   1.753   1.770   1.794   1.834   1.837   1.863   1.906
  1.935   1.969   1.982   1.998   2.049   2.074   2.094   2.118
  2.198   2.207   2.240   2.270   2.291   2.295   2.310   2.337
  2.341   2.347   2.404   2.412   2.430   2.478   2.522   2.533
  2.577   2.613   2.695   2.700   2.741   2.980   3.004   3.106
  3.107   3.228   3.239   3.546   3.566   3.766   3.826   4.087
  4.115   4.141   4.154   4.247   4.339   4.485   4.520
 
 Beta MOs
 -- Occupied --
-89.098 -89.098 -10.430 -10.429 -10.413 -10.413 -10.391 -10.391
-10.379 -10.379  -8.157  -8.157  -6.121  -6.121  -6.117  -6.117
 -6.114  -6.114  -1.079  -1.054  -0.949  -0.927  -0.919  -0.871
 -0.781  -0.747  -0.727  -0.708  -0.696  -0.647  -0.591  -0.586
 -0.584  -0.577  -0.575  -0.542  -0.539  -0.533  -0.521  -0.436
 -0.435  -0.428
 -- Virtual --
 -0.336  -0.218  -0.190  -0.153  -0.134  -0.126  -0.125  -0.122
 -0.105  -0.096  -0.095  -0.089  -0.082  -0.078  -0.075  -0.068
 -0.056  -0.046  -0.041  -0.035  -0.027  -0.025  -0.019  -0.015
 -0.003   0.001   0.008   0.008   0.010   0.015   0.016   0.020
  0.026   0.028   0.031   0.037   0.039   0.041   0.047   0.058
  0.059   0.060   0.068   0.070   0.081   0.088   0.093   0.095
  0.107   0.115   0.119   0.121   0.133   0.144   0.146   0.148
  0.162   0.177   0.179   0.182   0.196   0.220   0.222   0.232
  0.250   0.266   0.294   0.324   0.325   0.352   0.363   0.394
  0.406   0.415   0.441   0.450   0.466   0.489   0.494   0.506
  0.509   0.535   0.542   0.559   0.561   0.579   0.590   0.595
  0.600   0.627   0.628   0.631   0.663   0.673   0.725   0.731
  0.771   0.778   0.786   0.788   0.817   0.819   0.821   0.837
  0.844   0.849   0.882   0.885   0.888   0.910   0.931   0.932
  0.953   0.975   1.015   1.043   1.046   1.079   1.112   1.113
  1.161   1.173   1.191   1.199   1.208   1.245   1.306   1.309
  1.359   1.445   1.490   1.526   1.550   1.638   1.695   1.714
  1.737   1.748   1.755   1.775   1.801   1.839   1.841   1.868
  1.912   1.944   1.978   1.989   2.010   2.059   2.081   2.099
  2.123   2.203   2.210   2.245   2.277   2.294   2.297   2.314
  2.343   2.344   2.353   2.408   2.417   2.433   2.482   2.526
  2.536   2.582   2.617   2.698   2.702   2.744   2.981   3.006
  3.106   3.108   3.229   3.241   3.548   3.567   3.766   3.826
  4.094   4.122   4.144   4.156   4.254   4.346   4.489   4.523
 --------------------------------------------------------------
 
          Ground-State Mulliken Net Atomic Charges

     Atom                 Charge (a.u.)    Spin (a.u.)
  --------------------------------------------------------
      1 S                     0.111237      -0.057450
      2 C                    -0.006826       0.317427
      3 H                     0.251205      -0.015914
      4 C                    -0.305552      -0.033496
      5 H                     0.172021       0.001745
      6 C                     0.077501       0.141593
      7 H                     0.190182      -0.009424
      8 C                     0.010586       0.155619
      9 C                     0.010244       0.155677
     10 C                     0.077873       0.141310
     11 H                     0.190149      -0.009434
     12 C                    -0.305762      -0.033495
     13 H                     0.172067       0.001750
     14 C                    -0.007158       0.317458
     15 H                     0.251074      -0.015921
     16 S                     0.111157      -0.057442
  --------------------------------------------------------
  Sum of atomic charges =     1.000000
  Sum of spin   charges =     1.000000

 -----------------------------------------------------------------
                    Cartesian Multipole Moments
 -----------------------------------------------------------------
    Charge (ESU x 10^10)
                 4.8032
    Dipole Moment (Debye)
         X      -3.3076      Y       0.1913      Z     -10.1130
       Tot      10.6419
    Quadrupole Moments (Debye-Ang)
        XX     -30.7993     XY       2.0043     YY     -66.7985
        XZ      23.1774     YZ      -5.1927     ZZ     -31.9673
    Octopole Moments (Debye-Ang^2)
       XXX      87.8308    XXY      -4.7811    XYY      42.1293
       YYY      28.9896    XXZ      20.3053    XYZ      -0.6711
       YYZ     116.8040    XZZ     -24.6740    YZZ      34.0532
       ZZZ     269.1038
    Hexadecapole Moments (Debye-Ang^3)
      XXXX   -1271.0219   XXXY      -8.6347   XXYY    -315.6605
      XYYY     -76.7749   YYYY    -263.8734   XXXZ    -284.4765
      XXYZ      14.5228   XYYZ    -177.3444   YYYZ     -16.6484
      XXZZ    -280.5255   XYZZ     -55.5338   YYZZ    -367.7254
      XZZZ    -349.2459   YZZZ    -122.0815   ZZZZ   -1840.4124
 -----------------------------------------------------------------
Archival summary:
1\1\nid00812\OPT\ProcedureUnspecified\BasisUnspecified\286(1+,2)\bwood\WedMay3102:27:242017WedMay3102:27:242017\0\\#,OPT,ProcedureUnspecified,BasisUnspecified,\\1,2\S\C,1,1.71898\H,2,1.08379,1,119.767\C,2,1.3941,1,113.125,3,-177.963,0\H,4,1.08334,2,123.188,1,-177.502,0\C,4,1.39507,2,112.307,1,1.82049,0\H,6,1.0842,4,124.47,2,-177.916,0\C,6,1.41628,4,113.394,2,0.738889,0\C,8,1.42584,6,126.067,4,-165.267,0\C,9,1.41641,8,126.082,6,-70,0\H,10,1.08426,9,122.145,8,13.449,0\C,10,1.39512,9,113.386,8,-165.194,0\H,12,1.08341,10,124.489,9,-179.987,0\C,12,1.39405,10,112.311,9,0.723404,0\H,14,1.08379,12,127.061,10,-175.914,0\S,14,1.71901,12,113.13,10,1.8122,0\\\@

 Total job time:  94.01s(wall), 94.43s(cpu) 
 Wed May 31 02:27:24 2017

        *************************************************************
        *                                                           *
        *  Thank you very much for using Q-Chem.  Have a nice day.  *
        *                                                           *
        *************************************************************


0 sent ACK to 0 
now end server 0 ... 
