srun -N 1 --ntasks-per-node 16 --cpus-per-task 4 --cpu_bind=cores --nodelist nid00820 /global/project/projectdirs/jcesr/qchem/qc44/cnl_qc441/dist/exe/qcprog.cori.haswell.exe .pt_n2_cation_90.0.in.26779.qcin.1 /global/cscratch1/sd/bwood/qchem/nx/qchem26779/
Process 1 of 16 is on nid00820 - thread support 0
Process 2 of 16 is on nid00820 - thread support 0
Process 3 of 16 is on nid00820 - thread support 0
Process 4 of 16 is on nid00820 - thread support 0
Process 5 of 16 is on nid00820 - thread support 0
Process 6 of 16 is on nid00820 - thread support 0
Process 0 of 16 is on nid00820 - thread support 0
Process 15 of 16 is on nid00820 - thread support 0
initial socket setup ...start
initial socket setup ...done 
now start server 0 ... 
nid00820 10.128.3
Q-Chem Developer Version! Running on 10.128.3.*
                  Welcome to Q-Chem
     A Quantum Leap Into The Future Of Chemistry


 Q-Chem 4.4, Q-Chem, Inc., Pleasanton, CA (2016)

 Y. Shao,  Z. Gan,  E. Epifanovsky,  A. T. B. Gilbert,  M. Wormit,  
 J. Kussmann,  A. W. Lange,  A. Behn,  J. Deng,  X. Feng,  D. Ghosh,  
 M. Goldey,  P. R. Horn,  L. D. Jacobson,  I. Kaliman,  F. Rob,  
 R. Z. Khaliullin,  T. Kus,  A. Landau,  J. Liu,  E. I. Proynov,  Y. M. Rhee,  
 R. M. Richard,  M. A. Rohrdanz,  R. P. Steele,  E. J. Sundstrom,  
 H. L. Woodcock III,  P. M. Zimmerman,  D. Zuev,  B. Albrecht,  E. Alguire,  
 B. Austin,  S. A. Baeppler,  G. J. O. Beran,  Y. A. Bernard,  
 E. J. Berquist,  K. Brandhorst,  K. B. Bravaya,  S. T. Brown,  D. Casanova,  
 C.-M. Chang,  Y. Chen,  S. H. Chien,  K. D. Closser,  M. P. Coons,  
 D. L. Crittenden,  S. Dasgupta,  M. Diedenhofen,  R. A. DiStasio Jr.,  
 H. Do,  A. D. Dutoi,  R. G. Edgar,  P.-T. Fang,  S. Fatehi,  Q. Feng,  
 L. Fusti-Molnar,  A. Ghysels,  A. Golubeva-Zadorozhnaya,  J. Gomes,  
 A. Gunina,  M. W. D. Hanson-Heine,  P. H. P. Harbach,  A. W. Hauser,  
 J. E. Herr,  E. G. Hohenstein,  Z. C. Holden,  K. Hui,  T.-C. Jagau,  H. Ji,  
 B. Kaduk,  K. Khistyaev,  Jaehoon Kim,  Jihan Kim,  R. A. King,  
 P. Klunzinger,  K. Koh,  D. Kosenkov,  T. Kowalczyk,  C. M. Krauter,  
 A. Kunitsa,  K. U. Lao,  A. Laurent,  K. V. Lawler,  J. Lee,  D. Lefrancois,  
 S. Lehtola,  S. V. Levchenko,  C. Y. Lin,  Y.-S. Lin,  F. Liu,  E. Livshits,  
 R. C. Lochan,  A. Luenser,  P. Manohar,  S. F. Manzer,  S.-P. Mao,  Y. Mao,  
 N. Mardirossian,  A. V. Marenich,  L. A. Martinez-Martinez,  S. A. Maurer,  
 N. J. Mayhall,  J.-M. Mewes,  A. F. Morrison,  K. Nanda,  T. S. Nguyen-Beck,  
 C. M. Oana,  R. Olivares-Amaya,  D. P. O'Neill,  J. A. Parkhill,  
 T. M. Perrine,  R. Peverati,  P. A. Pieniazek,  F. Plasser,  A. Prociuk,  
 D. R. Rehn,  E. Rosta,  N. J. Russ,  N. Sergueev,  S. M. Sharada,  
 S. Sharma,  D. W. Small,  A. Sodt,  T. Stauch,  T. Stein,  D. Stuck,  
 Y.-C. Su,  A. J. W. Thom,  T. Tsuchimochi,  L. Vogt,  O. Vydrov,  T. Wang,  
 M. A. Watson,  J. Wenzel,  A. White,  C. F. Williams,  V. Vanovschi,  
 K. Yao,  S. Yeganeh,  S. R. Yost,  Z.-Q. You,  I. Y. Zhang,  X. Zhang,  
 Y. Zhao,  B. R. Brooks,  G. K. L. Chan,  D. M. Chipman,  C. J. Cramer,  
 W. A. Goddard III,  M. S. Gordon,  W. J. Hehre,  A. Klamt,  
 H. F. Schaefer III,  M. W. Schmidt,  C. D. Sherrill,  D. G. Truhlar,  
 A. Warshel,  X. Xu,  A. Aspuru-Guzik,  R. Baer,  A. T. Bell,  N. A. Besley,  
 J.-D. Chai,  A. Dreuw,  B. D. Dunietz,  T. R. Furlani,  S. R. Gwaltney,  
 C.-P. Hsu,  Y. Jung,  J. Kong,  D. S. Lambrecht,  W. Liang,  C. Ochsenfeld,  
 V. A. Rassolov,  L. V. Slipchenko,  J. E. Subotnik,  T. Van Voorhis,  
 J. M. Herbert,  A. I. Krylov,  P. M. W. Gill,  M. Head-Gordon

 Contributors to earlier versions of Q-Chem not listed above: 
 R. D. Adamson,  J. Baker,  E. F. C. Byrd,  A. K. Chakraborty,  C.-L. Cheng,  
 H. Dachsel,  R. J. Doerksen,  G. Hawkins,  A. Heyden,  S. Hirata,  
 G. Kedziora,  F. J. Keil,  C. Kelley,  P. P. Korambath,  W. Kurlancheek,  
 A. M. Lee,  M. S. Lee,  D. Liotard,  I. Lotan,  P. E. Maslen,  N. Nair,  
 D. Neuhauser,  R. Olson,  B. Peters,  J. Ritchie,  N. E. Schultz,  
 N. Shenvi,  A. C. Simmonett,  K. S. Thanthiriwatte,  Q. Wu,  W. Zhang

 Please cite Q-Chem as follows:
 Y. Shao et al., Mol. Phys. 113, 184-215 (2015)
 DOI: 10.1080/00268976.2014.952696

 Q-Chem 4.4.2 for Intel X86 EM64T Linux

 Parts of Q-Chem use Armadillo 5.200.1 (Boston Tea Smuggler).
 http://arma.sourceforge.net/

 Q-Chem begins on Wed May 31 02:25:51 2017  

Host: nid00776
0

     Scratch files written to /global/cscratch1/sd/bwood/qchem/nx/qchem26779.0//
 Parallel job on  16  processors

Checking the input file for inconsistencies... 	...done.

--------------------------------------------------------------
User input:
--------------------------------------------------------------
$molecule
 1  2
 S           0.00238887        0.06077275        0.00183269
 C           1.73707619        0.03315849        0.00323229
 H           2.27612737        0.05289032        0.94042557
 C           2.24169204       -0.01546201       -1.26965798
 H           3.30285780       -0.04005365       -1.48972496
 C           1.22479222       -0.01612968       -2.26811464
 H           1.42674790       -0.02650987       -3.33334501
 C          -0.05393771        0.02880388       -1.75170966
 C          -1.32450815        0.04889988       -2.45636342
 C          -2.11260676       -1.01100829       -2.85578010
 H          -1.85180807       -2.04436573       -2.65584381
 C          -3.30801312       -0.61184533       -3.52102991
 H          -4.05008809       -1.30705744       -3.89666203
 C          -3.42923403        0.74884447       -3.62573399
 H          -4.23167959        1.32037512       -4.07173299
 S          -2.06953965        1.56739994       -2.92521033
$end


$rem
         jobtype = opt
        exchange = b3lyp
           basis = 6-31++g**
  max_scf_cycles = 150
      mem_static = 775
       mem_total = 7750
      sym_ignore = true
        symmetry = false
          thresh = 12
$end


$opt
CONSTRAINT
tors 6 8 9 10 90.0
ENDCONSTRAINT
$end

--------------------------------------------------------------
 ----------------------------------------------------------------
             Standard Nuclear Orientation (Angstroms)
    I     Atom           X                Y                Z
 ----------------------------------------------------------------
    1      S       0.0023888700     0.0607727500     0.0018326900
    2      C       1.7370761900     0.0331584900     0.0032322900
    3      H       2.2761273700     0.0528903200     0.9404255700
    4      C       2.2416920400    -0.0154620100    -1.2696579800
    5      H       3.3028578000    -0.0400536500    -1.4897249600
    6      C       1.2247922200    -0.0161296800    -2.2681146400
    7      H       1.4267479000    -0.0265098700    -3.3333450100
    8      C      -0.0539377100     0.0288038800    -1.7517096600
    9      C      -1.3245081500     0.0488998800    -2.4563634200
   10      C      -2.1126067600    -1.0110082900    -2.8557801000
   11      H      -1.8518080700    -2.0443657300    -2.6558438100
   12      C      -3.3080131200    -0.6118453300    -3.5210299100
   13      H      -4.0500880900    -1.3070574400    -3.8966620300
   14      C      -3.4292340300     0.7488444700    -3.6257339900
   15      H      -4.2316795900     1.3203751200    -4.0717329900
   16      S      -2.0695396500     1.5673999400    -2.9252103300
 ----------------------------------------------------------------
 Nuclear Repulsion Energy =   628.6861488703 hartrees
 There are       43 alpha and       42 beta electrons
 Requested basis set is 6-31++G(d,p)
 There are 76 shells and 234 basis functions

 Total QAlloc Memory Limit   7750 MB
 Mega-Array Size       758 MB
 MEM_STATIC part       775 MB
 A cutoff of  1.0D-12 yielded   2528 shell pairs
 There are     24880 function pairs

 Q-Chem warning in module /project/projectdirs/jcesr/qchem/qc44/cnl_qc441/compile/cori/qc_src/libqints/qchem/aobasis.C, line 68:

 Using reconstructed effective core potential

 
 -------------------------------------------------------
 OpenMP Integral Computing Module                       
 Release: version 1.0, May 2013, Q-Chem Inc. Pittsburgh 
 -------------------------------------------------------
 Integral Job Info:
 Integral job number is                      11
 Integral operator is                         1
 short-range coefficients                     0
 long-range coefficients              100000000
 Omega coefficients                           0
 if combine SR and LR in K                    0
 Integral screening is                        0
 Integral computing path is                   2
 max size of driver memory is            800000
 size of driver memory is                593474
 size of scratch memory is             15166112
 max col of scratch BK array               1296
 max len of scratch array in speh3          155
 max len of scratch index in speh4           18
 max int batch size is                      520
 min int batch size is                       52
 fixed nKL is                                52
 max L of basis functions is                  2
 order of int derivative is                   0
 number of shells is                         76
 number of basis is                         234
 number of cartesian basis is               234
 number of contracted shell pairs          2528
 number of primitive shell pairs           8214
 maxK2 (contraction) of shell pair           36
 max number of K2 of shell pair               1
 max number of CS2 of shell pair            266
 max number of PS2 of shell pair           1512
 mem total for path MDJ                   51992
 -------------------------------------------------------
 Smallest overlap matrix eigenvalue = 1.12E-06

 Scale SEOQF with 1.000000e-01/1.000000e-01/1.000000e-01

 Standard Electronic Orientation quadrupole field applied
 Nucleus-field energy     =    -0.0000000353 hartrees
 Guess from superposition of atomic densities
 Warning:  Energy on first SCF cycle will be non-variational
 An unrestricted hybrid HF-DFT SCF calculation will be
 performed using Pulay DIIS extrapolation
 Exchange:     0.2000 Hartree-Fock + 0.0800 Slater + 0.7200 B88
 Correlation:  0.1900 VWN1RPA + 0.8100 LYP
 Using SG-1 standard quadrature grid
 SCF converges when DIIS error is below 1.0E-08
 Inaccurate integrated density:
   Number of electrons =    85
   Numerical integral  =    86.000141104817
   Relative error      =     1.1766365939 %
 ---------------------------------------
  Cycle       Energy         DIIS Error
 ---------------------------------------
    1   -1107.1753288931      4.40E-02
    2   -1104.3668602616      4.30E-03
    3   -1103.9300750738      8.03E-03
    4   -1104.4473590764      2.71E-03
    5   -1104.4919304708      1.70E-03
    6   -1104.5151789320      1.00E-03
    7   -1104.5266740347      3.31E-04
    8   -1104.5281307734      1.60E-04
    9   -1104.5287594735      1.22E-04
   10   -1104.5298792072      7.38E-05
   11   -1104.5304818832      3.76E-05
   12   -1104.5308531982      3.17E-05
   13   -1104.5309791230      2.55E-05
   14   -1104.5310364336      1.16E-05
   15   -1104.5310459098      6.38E-06
   16   -1104.5310509840      4.87E-06
   17   -1104.5310513629      4.89E-06
   18   -1104.5310516354      3.02E-06
   19   -1104.5310518564      2.23E-06
   20   -1104.5310520387      1.58E-06
   21   -1104.5310520766      1.61E-07
   22   -1104.5310520769      9.81E-08
   23   -1104.5310520784      4.59E-08
   24   -1104.5310520776      2.14E-08
   25   -1104.5310520776      2.08E-08
   26   -1104.5310520784      9.75E-09 Convergence criterion met
 ---------------------------------------
 <S^2> = 0.7581
 SCF time:  CPU 17.78 s  wall 16.73 s
 SCF   energy in the final basis set = -1104.5310520784
 Total energy in the final basis set = -1104.5310520784
 
 --------------------------------------------------------------
 
                    Orbital Energies (a.u.)
 --------------------------------------------------------------
 
 Alpha MOs
 -- Occupied --
-89.095 -89.095 -10.434 -10.434 -10.416 -10.416 -10.388 -10.388
-10.381 -10.381  -8.153  -8.153  -6.118  -6.118  -6.114  -6.114
 -6.110  -6.110  -1.087  -1.062  -0.960  -0.919  -0.919  -0.892
 -0.786  -0.744  -0.743  -0.710  -0.696  -0.653  -0.598  -0.594
 -0.593  -0.581  -0.574  -0.555  -0.554  -0.522  -0.521  -0.437
 -0.436  -0.433  -0.428
 -- Virtual --
 -0.216  -0.216  -0.153  -0.151  -0.136  -0.126  -0.123  -0.107
 -0.098  -0.092  -0.090  -0.088  -0.078  -0.078  -0.061  -0.061
 -0.044  -0.043  -0.040  -0.028  -0.019  -0.016  -0.010  -0.005
 -0.004  -0.002   0.002   0.003   0.011   0.014   0.023   0.023
  0.025   0.027   0.036   0.038   0.040   0.050   0.051   0.058
  0.062   0.063   0.072   0.074   0.079   0.089   0.094   0.103
  0.120   0.120   0.122   0.131   0.140   0.146   0.147   0.157
  0.169   0.178   0.179   0.186   0.222   0.223   0.236   0.244
  0.277   0.309   0.320   0.322   0.365   0.371   0.393   0.420
  0.425   0.428   0.453   0.465   0.479   0.491   0.502   0.511
  0.523   0.535   0.562   0.565   0.572   0.583   0.602   0.608
  0.630   0.634   0.642   0.659   0.675   0.726   0.742   0.765
  0.772   0.788   0.800   0.803   0.811   0.835   0.838   0.849
  0.852   0.860   0.867   0.889   0.914   0.929   0.933   0.947
  0.968   1.015   1.045   1.051   1.081   1.114   1.149   1.163
  1.169   1.184   1.189   1.216   1.287   1.287   1.304   1.351
  1.379   1.506   1.510   1.602   1.637   1.653   1.700   1.706
  1.743   1.749   1.782   1.789   1.834   1.845   1.886   1.925
  1.943   1.978   2.002   2.018   2.022   2.070   2.086   2.167
  2.199   2.204   2.253   2.258   2.294   2.305   2.321   2.336
  2.344   2.349   2.409   2.417   2.434   2.470   2.525   2.531
  2.576   2.653   2.686   2.701   2.755   2.994   2.998   3.109
  3.111   3.233   3.258   3.551   3.569   3.793   3.796   4.094
  4.126   4.133   4.151   4.253   4.345   4.483   4.530
 
 Beta MOs
 -- Occupied --
-89.095 -89.095 -10.431 -10.431 -10.412 -10.412 -10.388 -10.388
-10.380 -10.380  -8.154  -8.154  -6.118  -6.118  -6.114  -6.114
 -6.111  -6.111  -1.080  -1.057  -0.950  -0.917  -0.917  -0.882
 -0.781  -0.740  -0.738  -0.707  -0.695  -0.650  -0.594  -0.588
 -0.586  -0.578  -0.572  -0.543  -0.543  -0.521  -0.519  -0.434
 -0.427  -0.405
 -- Virtual --
 -0.370  -0.200  -0.199  -0.150  -0.148  -0.128  -0.122  -0.116
 -0.106  -0.097  -0.092  -0.089  -0.088  -0.077  -0.076  -0.060
 -0.060  -0.042  -0.041  -0.039  -0.026  -0.018  -0.016  -0.009
 -0.004  -0.003  -0.001   0.003   0.004   0.012   0.015   0.024
  0.024   0.026   0.027   0.039   0.039   0.041   0.051   0.053
  0.059   0.063   0.064   0.073   0.075   0.080   0.090   0.095
  0.103   0.120   0.121   0.124   0.132   0.142   0.148   0.148
  0.159   0.170   0.180   0.181   0.187   0.224   0.224   0.238
  0.246   0.279   0.311   0.322   0.325   0.365   0.373   0.395
  0.422   0.426   0.429   0.455   0.470   0.483   0.498   0.509
  0.517   0.527   0.537   0.566   0.568   0.575   0.586   0.607
  0.614   0.633   0.637   0.645   0.664   0.679   0.728   0.744
  0.770   0.777   0.791   0.802   0.805   0.813   0.836   0.839
  0.852   0.855   0.861   0.869   0.891   0.915   0.931   0.935
  0.950   0.972   1.019   1.050   1.055   1.083   1.117   1.151
  1.171   1.178   1.189   1.193   1.220   1.292   1.293   1.309
  1.357   1.386   1.518   1.522   1.607   1.648   1.662   1.704
  1.709   1.745   1.752   1.787   1.797   1.838   1.850   1.890
  1.933   1.950   1.987   2.013   2.024   2.033   2.076   2.092
  2.172   2.202   2.207   2.256   2.263   2.296   2.310   2.326
  2.339   2.348   2.352   2.412   2.420   2.438   2.474   2.529
  2.535   2.581   2.656   2.688   2.703   2.759   2.996   2.999
  3.110   3.111   3.234   3.260   3.553   3.571   3.794   3.796
  4.101   4.130   4.138   4.154   4.259   4.352   4.486   4.534
 --------------------------------------------------------------
 
          Ground-State Mulliken Net Atomic Charges

     Atom                 Charge (a.u.)    Spin (a.u.)
  --------------------------------------------------------
      1 S                     0.138216      -0.049303
      2 C                     0.078960       0.264272
      3 H                     0.247994      -0.011068
      4 C                    -0.385729       0.022612
      5 H                     0.174402      -0.001759
      6 C                     0.355432       0.033175
      7 H                     0.179805      -0.002133
      8 C                    -0.288394       0.244364
      9 C                    -0.289444       0.244243
     10 C                     0.354391       0.032763
     11 H                     0.179520      -0.002077
     12 C                    -0.385140       0.023078
     13 H                     0.174447      -0.001786
     14 C                     0.078738       0.263659
     15 H                     0.247927      -0.011049
     16 S                     0.138877      -0.048991
  --------------------------------------------------------
  Sum of atomic charges =     1.000000
  Sum of spin   charges =     1.000000

 -----------------------------------------------------------------
                    Cartesian Multipole Moments
 -----------------------------------------------------------------
    Charge (ESU x 10^10)
                 4.8032
    Dipole Moment (Debye)
         X      -3.2820      Y       0.1195      Z     -10.1583
       Tot      10.6760
    Quadrupole Moments (Debye-Ang)
        XX     -31.0713     XY      -1.3699     YY     -64.9235
        XZ      25.4511     YZ      -1.0198     ZZ     -32.6814
    Octopole Moments (Debye-Ang^2)
       XXX      88.0736    XXY      -6.5307    XYY      31.1401
       YYY     -45.9077    XXZ      18.1580    XYZ       8.1196
       YYZ     116.5761    XZZ     -38.1580    YZZ      -7.5704
       ZZZ     292.8135
    Hexadecapole Moments (Debye-Ang^3)
      XXXX   -1263.4760   XXXY      49.6804   XXYY    -295.3468
      XYYY      88.0324   YYYY    -326.6735   XXXZ    -301.9346
      XXYZ       4.0795   XYYZ    -160.7883   YYYZ     125.4938
      XXZZ    -241.1887   XYZZ      -8.1543   YYZZ    -397.0979
      XZZZ    -348.8872   YZZZ      89.7148   ZZZZ   -2041.2192
 -----------------------------------------------------------------
 Calculating analytic gradient of the SCF energy
 Gradient of SCF Energy
            1           2           3           4           5           6
    1   0.0038939   0.0159275  -0.0008063  -0.0000870   0.0003544  -0.0273745
    2   0.0087229   0.0009675  -0.0031862   0.0034222   0.0017007  -0.0129254
    3  -0.0113159  -0.0096821  -0.0011556   0.0278912   0.0005904   0.0027554
            7           8           9          10          11          12
    1  -0.0001898   0.0070801  -0.0019372   0.0266935  -0.0003074  -0.0124705
    2   0.0009058   0.0008313  -0.0122350   0.0145467  -0.0000089   0.0247371
    3  -0.0001209  -0.0101520   0.0008193  -0.0015511   0.0008616  -0.0043937
           13          14          15          16
    1  -0.0012847  -0.0093030   0.0025718  -0.0027607
    2   0.0004963  -0.0159936  -0.0008324  -0.0111490
    3   0.0011965  -0.0027762  -0.0021823   0.0092154
 Max gradient component =       2.789E-02
 RMS gradient           =       1.011E-02
 Gradient time:  CPU 1.90 s  wall 1.92 s
 Geometry Optimization Parameters
   NAtoms,    NIC,     NZ,  NCons,   NDum,   NFix, NCnnct, MaxDiis
       16     111       0       1       0       0       0       0


** CONSTRAINED OPTIMIZATION IN DELOCALIZED INTERNAL COORDINATES **
   Searching for a Minimum

   Optimization Cycle:   1

                       Coordinates (Angstroms)
     ATOM                X               Y               Z
      1  S         0.0023888700    0.0607727500    0.0018326900
      2  C         1.7370761900    0.0331584900    0.0032322900
      3  H         2.2761273700    0.0528903200    0.9404255700
      4  C         2.2416920400   -0.0154620100   -1.2696579800
      5  H         3.3028578000   -0.0400536500   -1.4897249600
      6  C         1.2247922200   -0.0161296800   -2.2681146400
      7  H         1.4267479000   -0.0265098700   -3.3333450100
      8  C        -0.0539377100    0.0288038800   -1.7517096600
      9  C        -1.3245081500    0.0488998800   -2.4563634200
     10  C        -2.1126067600   -1.0110082900   -2.8557801000
     11  H        -1.8518080700   -2.0443657300   -2.6558438100
     12  C        -3.3080131200   -0.6118453300   -3.5210299100
     13  H        -4.0500880900   -1.3070574400   -3.8966620300
     14  C        -3.4292340300    0.7488444700   -3.6257339900
     15  H        -4.2316795900    1.3203751200   -4.0717329900
     16  S        -2.0695396500    1.5673999400   -2.9252103300
   Point Group: c1    Number of degrees of freedom:    42


   Energy is  -1104.531052078

              Constraints and their Current Values
                                        Value     Constraint
   Dihedral:        6   8   9  10       90.000       90.000

 Attempting to Generate Delocalized Internal Coordinates

 41 Hessian modes will be used to form the next step
  Hessian Eigenvalues:
     0.045000    0.045000    0.045000    0.045000    0.045000    0.045000
     0.045002    0.045002    0.045003    0.045004    0.045011    0.045012
     0.159943    0.159949    0.159991    0.159992    0.160000    0.160000
     0.221282    0.221282    0.237835    0.237839    0.250000    0.250000
     0.294264    0.294663    0.312518    0.312618    0.354736    0.354850
     0.355125    0.355132    0.358226    0.358329    0.378510    0.404854
     0.404909    0.463547    0.463616    0.497922    0.497945

 Minimum Search - Taking Simple RFO Step
 Searching for Lamda that Minimizes Along All modes
 Value Taken    Lamda =  -0.01178019
 Calculated Step too Large.  Step scaled by  0.931775
 Step Taken.  Stepsize is  0.300000

                             Maximum     Tolerance    Cnvgd?
         Gradient           0.027072      0.000300      NO
         Displacement       0.147175      0.001200      NO
         Energy change     *********      0.000001      NO


 New Cartesian Coordinates Obtained by Inverse Iteration

 Displacement from previous Coordinates is:  0.549782
 ----------------------------------------------------------------
             Standard Nuclear Orientation (Angstroms)
    I     Atom           X                Y                Z
 ----------------------------------------------------------------
    1      S      -0.0143099373     0.0025166129     0.0439440172
    2      C       1.7163988420    -0.0153728604    -0.0150411659
    3      H       2.2750012295    -0.0258799961     0.9130554632
    4      C       2.2216143781    -0.0237555306    -1.3095842447
    5      H       3.2787962614    -0.0633040338    -1.5448777018
    6      C       1.2065428006     0.0478245968    -2.2783351496
    7      H       1.3863380972     0.0697221862    -3.3472545531
    8      C      -0.0721802934     0.0860340494    -1.7154037575
    9      C      -1.3513049186     0.0931621371    -2.4090048830
   10      C      -2.1242974279    -1.0073512428    -2.7894503252
   11      H      -1.8591294434    -2.0312618080    -2.5510507297
   12      C      -3.2726673341    -0.6380529008    -3.5097806017
   13      H      -3.9986511296    -1.3458307851    -3.8927452341
   14      C      -3.3830677221     0.7395143003    -3.6553764057
   15      H      -4.1832723790     1.2920180770    -4.1329466068
   16      S      -2.0455438035     1.6087300479    -2.9815664015
 ----------------------------------------------------------------
 Nuclear Repulsion Energy =   627.3262093283 hartrees
 There are       43 alpha and       42 beta electrons
 Applying Cartesian multipole field
    Component          Value
    ---------          -----
     (2,0,0)        1.00000E-11
     (0,2,0)        2.00000E-11
     (0,0,2)       -3.00000E-11
 Nucleus-field energy     =    -0.0000000357 hartrees
 Requested basis set is 6-31++G(d,p)
 There are 76 shells and 234 basis functions
 A cutoff of  1.0D-12 yielded   2530 shell pairs
 There are     24904 function pairs

 Q-Chem warning in module /project/projectdirs/jcesr/qchem/qc44/cnl_qc441/compile/cori/qc_src/libqints/qchem/aobasis.C, line 68:

 Using reconstructed effective core potential

 Smallest overlap matrix eigenvalue = 9.82E-07
 Linear dependence detected in AO basis
 Number of orthogonalized atomic orbitals = 233
 Maximum deviation from orthogonality = 5.242E-11
 No. of orbitals has changed due to linear dependencies.  Generating new SCF guess.
 Guess from superposition of atomic densities
 Warning:  Energy on first SCF cycle will be non-variational
 An unrestricted hybrid HF-DFT SCF calculation will be
 performed using Pulay DIIS extrapolation
 Exchange:     0.2000 Hartree-Fock + 0.0800 Slater + 0.7200 B88
 Correlation:  0.1900 VWN1RPA + 0.8100 LYP
 Using SG-1 standard quadrature grid
 SCF converges when DIIS error is below 1.0E-08
 Geometry optimization detected.  Setting ReadMinima to 0
 Setting SaveMinima to 0
 Inaccurate integrated density:
   Number of electrons =    85
   Numerical integral  =    85.999971678976
   Relative error      =     1.1764372694 %
 ---------------------------------------
  Cycle       Energy         DIIS Error
 ---------------------------------------
    1   -1107.1211788503      4.38E-02
    2   -1104.4279006619      3.73E-03
    3   -1104.1461838348      6.70E-03
    4   -1104.5052166965      1.84E-03
    5   -1104.5265756127      1.08E-03
    6   -1104.5365112665      3.92E-04
    7   -1104.5376621143      1.85E-04
    8   -1104.5379610945      5.47E-05
    9   -1104.5379994258      3.16E-05
   10   -1104.5380253991      1.90E-05
   11   -1104.5380382104      1.08E-05
   12   -1104.5380438892      5.96E-06
   13   -1104.5380463429      1.56E-06
   14   -1104.5380466664      5.17E-07
   15   -1104.5380467190      3.07E-07
   16   -1104.5380467310      1.10E-07
   17   -1104.5380467326      8.38E-08
   18   -1104.5380467338      6.36E-08
   19   -1104.5380467333      3.27E-08
   20   -1104.5380467337      2.03E-08
   21   -1104.5380467330      6.92E-09 Convergence criterion met
 ---------------------------------------
 <S^2> = 0.7593
 SCF time:  CPU 14.12 s  wall 14.15 s
 SCF   energy in the final basis set = -1104.5380467330
 Total energy in the final basis set = -1104.5380467330
 
 --------------------------------------------------------------
 
                    Orbital Energies (a.u.)
 --------------------------------------------------------------
 
 Alpha MOs
 -- Occupied --
-89.097 -89.097 -10.433 -10.433 -10.416 -10.416 -10.388 -10.388
-10.380 -10.380  -8.156  -8.156  -6.120  -6.120  -6.116  -6.116
 -6.113  -6.113  -1.083  -1.059  -0.954  -0.924  -0.923  -0.882
 -0.782  -0.744  -0.739  -0.711  -0.697  -0.648  -0.593  -0.591
 -0.587  -0.580  -0.573  -0.554  -0.550  -0.530  -0.527  -0.440
 -0.432  -0.431  -0.424
 -- Virtual --
 -0.220  -0.217  -0.158  -0.156  -0.135  -0.124  -0.124  -0.107
 -0.099  -0.091  -0.091  -0.088  -0.078  -0.077  -0.061  -0.060
 -0.042  -0.042  -0.040  -0.026  -0.016  -0.015  -0.009  -0.007
 -0.004  -0.001   0.002   0.007   0.009   0.014   0.021   0.023
  0.025   0.027   0.036   0.037   0.040   0.050   0.052   0.059
  0.063   0.069   0.072   0.076   0.082   0.088   0.094   0.102
  0.116   0.117   0.121   0.122   0.139   0.150   0.151   0.156
  0.173   0.177   0.193   0.218   0.222   0.228   0.240   0.249
  0.307   0.318   0.330   0.362   0.366   0.387   0.419   0.422
  0.429   0.457   0.459   0.477   0.493   0.495   0.515   0.531
  0.541   0.562   0.563   0.569   0.590   0.600   0.614   0.627
  0.634   0.640   0.659   0.674   0.722   0.729   0.759   0.767
  0.783   0.796   0.802   0.808   0.827   0.835   0.836   0.843
  0.846   0.857   0.892   0.908   0.926   0.927   0.947   0.970
  0.994   1.021   1.060   1.076   1.113   1.145   1.168   1.173
  1.181   1.187   1.221   1.277   1.296   1.297   1.340   1.375
  1.505   1.510   1.595   1.623   1.658   1.717   1.721   1.734
  1.741   1.787   1.801   1.836   1.850   1.887   1.915   1.944
  1.967   2.004   2.014   2.014   2.058   2.090   2.158   2.200
  2.206   2.248   2.255   2.292   2.297   2.314   2.331   2.340
  2.350   2.398   2.406   2.423   2.460   2.522   2.530   2.579
  2.651   2.678   2.696   2.742   2.990   2.991   3.106   3.108
  3.229   3.251   3.551   3.570   3.791   3.793   4.090   4.095
  4.130   4.145   4.254   4.336   4.488   4.533
 
 Beta MOs
 -- Occupied --
-89.098 -89.098 -10.430 -10.429 -10.412 -10.412 -10.387 -10.387
-10.379 -10.379  -8.156  -8.156  -6.120  -6.120  -6.116  -6.116
 -6.113  -6.113  -1.076  -1.053  -0.944  -0.922  -0.921  -0.872
 -0.777  -0.739  -0.734  -0.708  -0.695  -0.644  -0.586  -0.585
 -0.583  -0.577  -0.570  -0.542  -0.541  -0.528  -0.526  -0.437
 -0.430  -0.403
 -- Virtual --
 -0.359  -0.203  -0.199  -0.155  -0.153  -0.127  -0.122  -0.114
 -0.107  -0.098  -0.091  -0.090  -0.087  -0.076  -0.076  -0.061
 -0.059  -0.041  -0.040  -0.040  -0.024  -0.015  -0.014  -0.008
 -0.007  -0.004  -0.000   0.004   0.009   0.010   0.015   0.023
  0.024   0.026   0.028   0.037   0.040   0.042   0.051   0.053
  0.060   0.064   0.070   0.073   0.077   0.083   0.090   0.095
  0.103   0.116   0.118   0.123   0.125   0.141   0.152   0.152
  0.157   0.174   0.179   0.194   0.220   0.223   0.230   0.242
  0.253   0.309   0.320   0.332   0.364   0.367   0.388   0.421
  0.423   0.430   0.459   0.462   0.481   0.500   0.504   0.522
  0.534   0.543   0.564   0.565   0.572   0.592   0.604   0.620
  0.630   0.637   0.643   0.664   0.679   0.723   0.731   0.764
  0.773   0.786   0.800   0.804   0.810   0.828   0.836   0.838
  0.846   0.848   0.859   0.895   0.909   0.927   0.929   0.951
  0.973   0.998   1.025   1.064   1.079   1.115   1.147   1.177
  1.182   1.185   1.191   1.225   1.283   1.301   1.302   1.348
  1.382   1.516   1.522   1.602   1.632   1.666   1.719   1.724
  1.739   1.744   1.791   1.810   1.841   1.854   1.891   1.922
  1.952   1.977   2.014   2.020   2.024   2.065   2.098   2.163
  2.204   2.208   2.251   2.261   2.294   2.303   2.318   2.335
  2.344   2.352   2.402   2.410   2.427   2.464   2.526   2.534
  2.584   2.653   2.680   2.698   2.745   2.992   2.993   3.106
  3.109   3.230   3.252   3.552   3.571   3.792   3.793   4.098
  4.102   4.133   4.147   4.260   4.343   4.491   4.536
 --------------------------------------------------------------
 
          Ground-State Mulliken Net Atomic Charges

     Atom                 Charge (a.u.)    Spin (a.u.)
  --------------------------------------------------------
      1 S                     0.175921      -0.052056
      2 C                     0.086016       0.276202
      3 H                     0.247877      -0.011754
      4 C                    -0.351894       0.009717
      5 H                     0.175333      -0.000550
      6 C                     0.364391       0.047845
      7 H                     0.182464      -0.002637
      8 C                    -0.379754       0.233568
      9 C                    -0.379823       0.233001
     10 C                     0.363754       0.047670
     11 H                     0.182191      -0.002590
     12 C                    -0.351670       0.010045
     13 H                     0.175398      -0.000566
     14 C                     0.085773       0.275599
     15 H                     0.247782      -0.011730
     16 S                     0.176242      -0.051765
  --------------------------------------------------------
  Sum of atomic charges =     1.000000
  Sum of spin   charges =     1.000000

 -----------------------------------------------------------------
                    Cartesian Multipole Moments
 -----------------------------------------------------------------
    Charge (ESU x 10^10)
                 4.8032
    Dipole Moment (Debye)
         X      -3.2828      Y       0.1220      Z     -10.1559
       Tot      10.6739
    Quadrupole Moments (Debye-Ang)
        XX     -32.4909     XY      -1.3299     YY     -64.5227
        XZ      24.7564     YZ      -1.7581     ZZ     -32.4071
    Octopole Moments (Debye-Ang^2)
       XXX      93.8776    XXY      -8.7050    XYY      30.6646
       YYY     -45.6950    XXZ      21.1904    XYZ       7.5819
       YYZ     115.2000    XZZ     -36.8915    YZZ      -5.2299
       ZZZ     290.2543
    Hexadecapole Moments (Debye-Ang^3)
      XXXX   -1271.4239   XXXY      56.4522   XXYY    -292.7741
      XYYY      89.1540   YYYY    -333.8221   XXXZ    -320.6809
      XXYZ      12.1579   XYYZ    -157.6787   YYYZ     136.1419
      XXZZ    -247.6153   XYZZ      -8.2398   YYZZ    -395.8788
      XZZZ    -345.4132   YZZZ      92.1606   ZZZZ   -2040.3673
 -----------------------------------------------------------------
 Calculating analytic gradient of the SCF energy
 Gradient of SCF Energy
            1           2           3           4           5           6
    1  -0.0055054   0.0030935  -0.0009822   0.0012326   0.0000126  -0.0063651
    2   0.0055971   0.0033660  -0.0022631   0.0002881   0.0011057  -0.0120160
    3   0.0033582  -0.0048049   0.0001513   0.0043068  -0.0011826  -0.0011306
            7           8           9          10          11          12
    1   0.0012733   0.0092736  -0.0094227   0.0112036  -0.0010278  -0.0028263
    2   0.0000602   0.0054942  -0.0054124   0.0012817  -0.0006580   0.0032181
    3  -0.0000873  -0.0015240   0.0015985  -0.0078415  -0.0004174  -0.0013519
           13          14          15          16
    1  -0.0000660  -0.0022906   0.0017979   0.0005989
    2  -0.0009771  -0.0054143   0.0004559   0.0058741
    3   0.0012801   0.0030570  -0.0016283   0.0062168
 Max gradient component =       1.202E-02
 RMS gradient           =       4.353E-03
 Gradient time:  CPU 1.95 s  wall 1.93 s
 Geometry Optimization Parameters
   NAtoms,    NIC,     NZ,  NCons,   NDum,   NFix, NCnnct, MaxDiis
       16     111       0       1       0       0       0       0

 Cartesian Hessian Update
 Hessian Updated using BFGS Update


** CONSTRAINED OPTIMIZATION IN DELOCALIZED INTERNAL COORDINATES **
   Searching for a Minimum

   Optimization Cycle:   2

                       Coordinates (Angstroms)
     ATOM                X               Y               Z
      1  S        -0.0143099373    0.0025166129    0.0439440172
      2  C         1.7163988420   -0.0153728604   -0.0150411659
      3  H         2.2750012295   -0.0258799961    0.9130554632
      4  C         2.2216143781   -0.0237555306   -1.3095842447
      5  H         3.2787962614   -0.0633040338   -1.5448777018
      6  C         1.2065428006    0.0478245968   -2.2783351496
      7  H         1.3863380972    0.0697221862   -3.3472545531
      8  C        -0.0721802934    0.0860340494   -1.7154037575
      9  C        -1.3513049186    0.0931621371   -2.4090048830
     10  C        -2.1242974279   -1.0073512428   -2.7894503252
     11  H        -1.8591294434   -2.0312618080   -2.5510507297
     12  C        -3.2726673341   -0.6380529008   -3.5097806017
     13  H        -3.9986511296   -1.3458307851   -3.8927452341
     14  C        -3.3830677221    0.7395143003   -3.6553764057
     15  H        -4.1832723790    1.2920180770   -4.1329466068
     16  S        -2.0455438035    1.6087300479   -2.9815664015
   Point Group: c1    Number of degrees of freedom:    42


   Energy is  -1104.538046733

              Constraints and their Current Values
                                        Value     Constraint
   Dihedral:        6   8   9  10       90.000       90.000
 Hessian Updated using BFGS Update

 40 Hessian modes will be used to form the next step
  Hessian Eigenvalues:
     0.027227    0.045000    0.045000    0.045000    0.045000    0.045002
     0.045002    0.045004    0.045010    0.045012    0.045853    0.159838
     0.159947    0.159978    0.159992    0.160000    0.160558    0.221282
     0.222227    0.237837    0.249048    0.249999    0.280707    0.294449
     0.300330    0.312567    0.317485    0.354726    0.354841    0.355111
     0.355130    0.358227    0.358339    0.378638    0.404881    0.424249
     0.460782    0.463583    0.497933    0.541704

 Minimum Search - Taking Simple RFO Step
 Searching for Lamda that Minimizes Along All modes
 Value Taken    Lamda =  -0.00571486
 Calculated Step too Large.  Step scaled by  0.746706
 Step Taken.  Stepsize is  0.300000

                             Maximum     Tolerance    Cnvgd?
         Gradient           0.008284      0.000300      NO
         Displacement       0.190398      0.001200      NO
         Energy change     -0.006995      0.000001      NO


 New Cartesian Coordinates Obtained by Inverse Iteration

 Displacement from previous Coordinates is:  0.639765
 ----------------------------------------------------------------
             Standard Nuclear Orientation (Angstroms)
    I     Atom           X                Y                Z
 ----------------------------------------------------------------
    1      S       0.0056384916    -0.0608930114     0.0684785330
    2      C       1.7292084981    -0.0847356386    -0.0240426517
    3      H       2.3114951319    -0.1384264255     0.8890466422
    4      C       2.2102750111    -0.0274298183    -1.3337441446
    5      H       3.2623766265    -0.0793563911    -1.5869288559
    6      C       1.1828730446     0.1233550116    -2.2711598298
    7      H       1.3341600939     0.1901766945    -3.3421693317
    8      C      -0.0924596131     0.1511517431    -1.6789926574
    9      C      -1.3799199163     0.1394361043    -2.3541397079
   10      C      -2.1436669983    -0.9848156566    -2.7154652615
   11      H      -1.8757878119    -1.9941630797    -2.4255668131
   12      C      -3.2524780637    -0.6542372373    -3.5017826737
   13      H      -3.9617244012    -1.3762823130    -3.8883584962
   14      C      -3.3573575657     0.7211275049    -3.7189894341
   15      H      -4.1505070294     1.2463791277    -4.2394915159
   16      S      -2.0418582781     1.6174262353    -3.0521120816
 ----------------------------------------------------------------
 Nuclear Repulsion Energy =   626.5761496386 hartrees
 There are       43 alpha and       42 beta electrons
 Applying Cartesian multipole field
    Component          Value
    ---------          -----
     (2,0,0)        1.00000E-11
     (0,2,0)        2.00000E-11
     (0,0,2)       -3.00000E-11
 Nucleus-field energy     =    -0.0000000363 hartrees
 Requested basis set is 6-31++G(d,p)
 There are 76 shells and 234 basis functions
 A cutoff of  1.0D-12 yielded   2534 shell pairs
 There are     25000 function pairs

 Q-Chem warning in module /project/projectdirs/jcesr/qchem/qc44/cnl_qc441/compile/cori/qc_src/libqints/qchem/aobasis.C, line 68:

 Using reconstructed effective core potential

 Smallest overlap matrix eigenvalue = 1.03E-06
 No. of orbitals has changed due to linear dependencies.  Generating new SCF guess.
 Guess from superposition of atomic densities
 Warning:  Energy on first SCF cycle will be non-variational
 An unrestricted hybrid HF-DFT SCF calculation will be
 performed using Pulay DIIS extrapolation
 Exchange:     0.2000 Hartree-Fock + 0.0800 Slater + 0.7200 B88
 Correlation:  0.1900 VWN1RPA + 0.8100 LYP
 Using SG-1 standard quadrature grid
 SCF converges when DIIS error is below 1.0E-08
 Geometry optimization detected.  Setting ReadMinima to 0
 Setting SaveMinima to 0
 Inaccurate integrated density:
   Number of electrons =    85
   Numerical integral  =    85.999735614571
   Relative error      =     1.1761595466 %
 ---------------------------------------
  Cycle       Energy         DIIS Error
 ---------------------------------------
    1   -1107.1125094451      4.36E-02
    2   -1104.4350264602      3.66E-03
    3   -1104.2017211467      6.29E-03
    4   -1104.5274958172      1.22E-03
    5   -1104.5334808951      9.14E-04
    6   -1104.5408281530      2.73E-04
    7   -1104.5413771149      1.35E-04
    8   -1104.5415416171      3.90E-05
    9   -1104.5415657339      1.63E-05
   10   -1104.5415788725      8.55E-06
   11   -1104.5415862355      5.03E-06
   12   -1104.5415887318      2.90E-06
   13   -1104.5415899349      9.15E-07
   14   -1104.5415900980      3.62E-07
   15   -1104.5415901206      1.90E-07
   16   -1104.5415901223      5.98E-08
   17   -1104.5415901227      4.38E-08
   18   -1104.5415901226      2.17E-08
   19   -1104.5415901221      1.28E-08
   20   -1104.5415901219      8.59E-09 Convergence criterion met
 ---------------------------------------
 <S^2> = 0.7604
 SCF time:  CPU 13.42 s  wall 12.65 s
 SCF   energy in the final basis set = -1104.5415901219
 Total energy in the final basis set = -1104.5415901219
 
 --------------------------------------------------------------
 
                    Orbital Energies (a.u.)
 --------------------------------------------------------------
 
 Alpha MOs
 -- Occupied --
-89.098 -89.098 -10.433 -10.433 -10.416 -10.416 -10.390 -10.390
-10.379 -10.379  -8.156  -8.156  -6.121  -6.121  -6.117  -6.117
 -6.113  -6.113  -1.082  -1.059  -0.953  -0.925  -0.923  -0.880
 -0.781  -0.745  -0.738  -0.711  -0.697  -0.648  -0.594  -0.590
 -0.585  -0.579  -0.575  -0.555  -0.549  -0.530  -0.527  -0.442
 -0.433  -0.433  -0.419
 -- Virtual --
 -0.223  -0.216  -0.158  -0.156  -0.135  -0.124  -0.123  -0.107
 -0.100  -0.092  -0.091  -0.087  -0.078  -0.077  -0.062  -0.061
 -0.042  -0.041  -0.039  -0.029  -0.016  -0.013  -0.009  -0.008
 -0.005  -0.001   0.001   0.008   0.009   0.015   0.020   0.022
  0.023   0.027   0.034   0.038   0.041   0.049   0.049   0.061
  0.063   0.070   0.072   0.076   0.079   0.088   0.095   0.102
  0.113   0.114   0.118   0.121   0.144   0.148   0.152   0.155
  0.171   0.175   0.186   0.194   0.217   0.223   0.230   0.238
  0.273   0.303   0.314   0.334   0.364   0.370   0.380   0.420
  0.421   0.439   0.450   0.464   0.481   0.491   0.496   0.513
  0.541   0.541   0.561   0.564   0.566   0.594   0.595   0.615
  0.626   0.633   0.636   0.658   0.672   0.716   0.734   0.756
  0.773   0.786   0.799   0.807   0.814   0.834   0.838   0.838
  0.844   0.852   0.862   0.903   0.907   0.924   0.931   0.943
  0.967   1.022   1.033   1.059   1.079   1.108   1.145   1.172
  1.174   1.179   1.182   1.231   1.262   1.296   1.300   1.344
  1.376   1.502   1.512   1.576   1.621   1.662   1.725   1.726
  1.727   1.741   1.784   1.817   1.835   1.848   1.889   1.909
  1.944   1.959   2.004   2.006   2.012   2.053   2.090   2.160
  2.201   2.205   2.244   2.259   2.291   2.298   2.318   2.336
  2.338   2.351   2.397   2.405   2.436   2.455   2.518   2.530
  2.575   2.646   2.673   2.692   2.740   2.988   2.991   3.108
  3.108   3.227   3.246   3.549   3.570   3.792   3.797   4.091
  4.106   4.131   4.148   4.252   4.339   4.487   4.530
 
 Beta MOs
 -- Occupied --
-89.098 -89.098 -10.430 -10.430 -10.413 -10.413 -10.389 -10.389
-10.379 -10.379  -8.156  -8.156  -6.121  -6.121  -6.117  -6.117
 -6.114  -6.114  -1.076  -1.053  -0.943  -0.923  -0.921  -0.870
 -0.777  -0.740  -0.733  -0.708  -0.695  -0.645  -0.587  -0.586
 -0.581  -0.576  -0.572  -0.542  -0.541  -0.529  -0.525  -0.438
 -0.431  -0.406
 -- Virtual --
 -0.353  -0.206  -0.198  -0.155  -0.153  -0.127  -0.122  -0.114
 -0.107  -0.099  -0.091  -0.090  -0.087  -0.076  -0.076  -0.062
 -0.060  -0.040  -0.040  -0.038  -0.028  -0.016  -0.013  -0.009
 -0.007  -0.004   0.000   0.002   0.009   0.011   0.016   0.022
  0.023   0.024   0.028   0.036   0.041   0.042   0.050   0.051
  0.062   0.064   0.072   0.073   0.078   0.080   0.090   0.096
  0.102   0.115   0.115   0.120   0.124   0.146   0.149   0.154
  0.157   0.173   0.177   0.188   0.195   0.219   0.224   0.231
  0.240   0.275   0.306   0.315   0.336   0.366   0.370   0.380
  0.421   0.423   0.440   0.453   0.466   0.486   0.501   0.503
  0.520   0.543   0.544   0.562   0.566   0.569   0.596   0.599
  0.622   0.630   0.636   0.638   0.663   0.677   0.718   0.736
  0.761   0.778   0.788   0.800   0.810   0.816   0.835   0.839
  0.841   0.847   0.854   0.864   0.904   0.909   0.925   0.933
  0.946   0.971   1.025   1.038   1.065   1.081   1.111   1.148
  1.179   1.182   1.184   1.186   1.234   1.269   1.300   1.305
  1.353   1.382   1.513   1.525   1.586   1.627   1.669   1.726
  1.729   1.733   1.744   1.788   1.825   1.839   1.853   1.892
  1.917   1.952   1.969   2.010   2.015   2.024   2.060   2.097
  2.166   2.204   2.208   2.247   2.265   2.293   2.302   2.323
  2.340   2.343   2.354   2.401   2.409   2.440   2.459   2.522
  2.534   2.581   2.649   2.675   2.694   2.743   2.989   2.992
  3.108   3.109   3.228   3.248   3.551   3.571   3.793   3.797
  4.098   4.113   4.134   4.150   4.259   4.346   4.491   4.534
 --------------------------------------------------------------
 
          Ground-State Mulliken Net Atomic Charges

     Atom                 Charge (a.u.)    Spin (a.u.)
  --------------------------------------------------------
      1 S                     0.184451      -0.052648
      2 C                     0.040953       0.283870
      3 H                     0.245314      -0.013116
      4 C                    -0.320003      -0.003207
      5 H                     0.173863       0.000470
      6 C                     0.296654       0.066874
      7 H                     0.182815      -0.003702
      8 C                    -0.300654       0.221744
      9 C                    -0.306685       0.221228
     10 C                     0.295733       0.066828
     11 H                     0.182641      -0.003654
     12 C                    -0.319830      -0.002801
     13 H                     0.173909       0.000450
     14 C                     0.041351       0.283198
     15 H                     0.245283      -0.013099
     16 S                     0.184204      -0.052437
  --------------------------------------------------------
  Sum of atomic charges =     1.000000
  Sum of spin   charges =     1.000000

 -----------------------------------------------------------------
                    Cartesian Multipole Moments
 -----------------------------------------------------------------
    Charge (ESU x 10^10)
                 4.8032
    Dipole Moment (Debye)
         X      -3.2529      Y       0.0523      Z     -10.2137
       Tot      10.7193
    Quadrupole Moments (Debye-Ang)
        XX     -33.0153     XY      -1.3246     YY     -64.5962
        XZ      24.9554     YZ      -2.5351     ZZ     -31.7490
    Octopole Moments (Debye-Ang^2)
       XXX      96.5057    XXY     -10.1590    XYY      31.2332
       YYY     -45.2216    XXZ      21.9176    XYZ       7.3221
       YYZ     115.7089    XZZ     -39.6571    YZZ      -2.0071
       ZZZ     285.4183
    Hexadecapole Moments (Debye-Ang^3)
      XXXX   -1279.5573   XXXY      59.9436   XXYY    -294.0399
      XYYY      91.2538   YYYY    -337.1871   XXXZ    -329.0589
      XXYZ      16.6240   XYYZ    -160.6117   YYYZ     148.6489
      XXZZ    -243.1290   XYZZ     -11.7618   YYZZ    -399.2760
      XZZZ    -329.5658   YZZZ      89.8666   ZZZZ   -2031.0766
 -----------------------------------------------------------------
 Calculating analytic gradient of the SCF energy
 Gradient of SCF Energy
            1           2           3           4           5           6
    1  -0.0033242  -0.0003306  -0.0003222   0.0007106  -0.0001493   0.0001005
    2   0.0026535   0.0035515  -0.0012701  -0.0006345   0.0005546  -0.0116239
    3   0.0038440   0.0003195   0.0005714  -0.0027108  -0.0006302  -0.0012582
            7           8           9          10          11          12
    1   0.0006776   0.0082232  -0.0109782   0.0059281  -0.0003781   0.0007612
    2  -0.0004856   0.0100471  -0.0039823  -0.0018872  -0.0001936  -0.0026813
    3   0.0001425  -0.0007475   0.0058638  -0.0099465  -0.0006899  -0.0001088
           13          14          15          16
    1   0.0000890  -0.0014776   0.0006263  -0.0001563
    2  -0.0004525   0.0006118   0.0005977   0.0051948
    3   0.0007268   0.0032326  -0.0011253   0.0025168
 Max gradient component =       1.162E-02
 RMS gradient           =       3.898E-03
 Gradient time:  CPU 1.90 s  wall 1.91 s
 Geometry Optimization Parameters
   NAtoms,    NIC,     NZ,  NCons,   NDum,   NFix, NCnnct, MaxDiis
       16     111       0       1       0       0       0       0

 Cartesian Hessian Update
 Hessian Updated using BFGS Update


** CONSTRAINED OPTIMIZATION IN DELOCALIZED INTERNAL COORDINATES **
   Searching for a Minimum

   Optimization Cycle:   3

                       Coordinates (Angstroms)
     ATOM                X               Y               Z
      1  S         0.0056384916   -0.0608930114    0.0684785330
      2  C         1.7292084981   -0.0847356386   -0.0240426517
      3  H         2.3114951319   -0.1384264255    0.8890466422
      4  C         2.2102750111   -0.0274298183   -1.3337441446
      5  H         3.2623766265   -0.0793563911   -1.5869288559
      6  C         1.1828730446    0.1233550116   -2.2711598298
      7  H         1.3341600939    0.1901766945   -3.3421693317
      8  C        -0.0924596131    0.1511517431   -1.6789926574
      9  C        -1.3799199163    0.1394361043   -2.3541397079
     10  C        -2.1436669983   -0.9848156566   -2.7154652615
     11  H        -1.8757878119   -1.9941630797   -2.4255668131
     12  C        -3.2524780637   -0.6542372373   -3.5017826737
     13  H        -3.9617244012   -1.3762823130   -3.8883584962
     14  C        -3.3573575657    0.7211275049   -3.7189894341
     15  H        -4.1505070294    1.2463791277   -4.2394915159
     16  S        -2.0418582781    1.6174262353   -3.0521120816
   Point Group: c1    Number of degrees of freedom:    42


   Energy is  -1104.541590122

              Constraints and their Current Values
                                        Value     Constraint
   Dihedral:        6   8   9  10       90.000       90.000
 Hessian Updated using BFGS Update

 41 Hessian modes will be used to form the next step
  Hessian Eigenvalues:
     0.012942    0.045000    0.045000    0.045000    0.045000    0.045002
     0.045002    0.045003    0.045008    0.045012    0.045022    0.049075
     0.159766    0.159947    0.159975    0.159992    0.160000    0.160695
     0.221283    0.222372    0.237838    0.249999    0.252050    0.280067
     0.294462    0.299675    0.312561    0.314926    0.354771    0.354928
     0.355129    0.355187    0.358271    0.358587    0.383630    0.404882
     0.422456    0.461152    0.463584    0.497935    0.593381

 Minimum Search - Taking Simple RFO Step
 Searching for Lamda that Minimizes Along All modes
 Value Taken    Lamda =  -0.00534695
 Calculated Step too Large.  Step scaled by  0.567826
 Step Taken.  Stepsize is  0.300000

                             Maximum     Tolerance    Cnvgd?
         Gradient           0.007467      0.000300      NO
         Displacement       0.224321      0.001200      NO
         Energy change     -0.003543      0.000001      NO


 New Cartesian Coordinates Obtained by Inverse Iteration

 Displacement from previous Coordinates is:  0.710284
 ----------------------------------------------------------------
             Standard Nuclear Orientation (Angstroms)
    I     Atom           X                Y                Z
 ----------------------------------------------------------------
    1      S       0.0198727171    -0.1189234122     0.0816186845
    2      C       1.7362283890    -0.1649195723    -0.0458384523
    3      H       2.3400299492    -0.2726002005     0.8481832704
    4      C       2.1925159458    -0.0253830349    -1.3596839992
    5      H       3.2387824995    -0.0855824867    -1.6341264009
    6      C       1.1514140687     0.2033755541    -2.2608618986
    7      H       1.2762264036     0.3237942734    -3.3306871941
    8      C      -0.1172263427     0.2198154327    -1.6418147583
    9      C      -1.4071836962     0.1878849221    -2.2938954491
   10      C      -2.1607180469    -0.9560307071    -2.6352670515
   11      H      -1.8976153937    -1.9486268562    -2.2883530245
   12      C      -3.2293028210    -0.6684815501    -3.4860420289
   13      H      -3.9217596844    -1.4068467725    -3.8720603542
   14      C      -3.3165337476     0.6938233795    -3.7865744406
   15      H      -4.0935885049     1.1889457241    -4.3581657144
   16      S      -2.0308745156     1.6184681567    -3.1118494684
 ----------------------------------------------------------------
 Nuclear Repulsion Energy =   627.2090230057 hartrees
 There are       43 alpha and       42 beta electrons
 Applying Cartesian multipole field
    Component          Value
    ---------          -----
     (2,0,0)        1.00000E-11
     (0,2,0)        2.00000E-11
     (0,0,2)       -3.00000E-11
 Nucleus-field energy     =    -0.0000000368 hartrees
 Requested basis set is 6-31++G(d,p)
 There are 76 shells and 234 basis functions
 A cutoff of  1.0D-12 yielded   2536 shell pairs
 There are     25014 function pairs

 Q-Chem warning in module /project/projectdirs/jcesr/qchem/qc44/cnl_qc441/compile/cori/qc_src/libqints/qchem/aobasis.C, line 68:

 Using reconstructed effective core potential

 Smallest overlap matrix eigenvalue = 1.21E-06
 Guess MOs from SCF MO coefficient file
 Reading MOs from coefficient file
 Reading MOs from coefficient file
 An unrestricted hybrid HF-DFT SCF calculation will be
 performed using Pulay DIIS extrapolation
 Exchange:     0.2000 Hartree-Fock + 0.0800 Slater + 0.7200 B88
 Correlation:  0.1900 VWN1RPA + 0.8100 LYP
 Using SG-1 standard quadrature grid
 SCF converges when DIIS error is below 1.0E-08
 Geometry optimization detected.  Setting ReadMinima to 0
 Setting SaveMinima to 0
 ---------------------------------------
  Cycle       Energy         DIIS Error
 ---------------------------------------
    1   -1104.5337898887      2.72E-03
    2   -1104.5430030258      3.19E-04
    3   -1104.5405938172      6.40E-04
    4   -1104.5440241608      7.84E-05
    5   -1104.5440554717      5.46E-05
    6   -1104.5440809334      8.03E-06
    7   -1104.5440824259      2.81E-06
    8   -1104.5440828865      1.69E-06
    9   -1104.5440831514      1.02E-06
   10   -1104.5440833680      6.33E-07
   11   -1104.5440834162      4.39E-07
   12   -1104.5440834342      6.54E-08
   13   -1104.5440834345      2.23E-08
   14   -1104.5440834344      1.51E-08
   15   -1104.5440834347      5.54E-09 Convergence criterion met
 ---------------------------------------
 <S^2> = 0.7617
 SCF time:  CPU 10.12 s  wall 9.63 s
 SCF   energy in the final basis set = -1104.5440834347
 Total energy in the final basis set = -1104.5440834347
 
 --------------------------------------------------------------
 
                    Orbital Energies (a.u.)
 --------------------------------------------------------------
 
 Alpha MOs
 -- Occupied --
-89.098 -89.098 -10.433 -10.433 -10.416 -10.416 -10.391 -10.391
-10.378 -10.378  -8.156  -8.156  -6.121  -6.121  -6.117  -6.117
 -6.113  -6.113  -1.083  -1.059  -0.954  -0.926  -0.923  -0.880
 -0.782  -0.747  -0.736  -0.712  -0.697  -0.649  -0.596  -0.591
 -0.585  -0.579  -0.576  -0.556  -0.549  -0.530  -0.525  -0.445
 -0.434  -0.433  -0.415
 -- Virtual --
 -0.227  -0.214  -0.158  -0.155  -0.135  -0.124  -0.123  -0.108
 -0.100  -0.093  -0.090  -0.087  -0.078  -0.076  -0.063  -0.062
 -0.041  -0.041  -0.036  -0.032  -0.018  -0.011  -0.011  -0.008
 -0.005   0.000   0.002   0.007   0.011   0.015   0.019   0.022
  0.023   0.028   0.034   0.038   0.040   0.047   0.049   0.064
  0.065   0.072   0.073   0.077   0.080   0.088   0.095   0.102
  0.111   0.112   0.118   0.120   0.147   0.151   0.153   0.157
  0.169   0.173   0.192   0.194   0.215   0.224   0.228   0.237
  0.266   0.301   0.311   0.338   0.368   0.374   0.375   0.417
  0.420   0.443   0.451   0.463   0.481   0.497   0.497   0.510
  0.538   0.547   0.559   0.567   0.573   0.592   0.596   0.615
  0.623   0.629   0.640   0.657   0.669   0.712   0.733   0.752
  0.771   0.789   0.794   0.805   0.818   0.827   0.835   0.840
  0.846   0.853   0.860   0.908   0.911   0.922   0.938   0.938
  0.969   1.016   1.022   1.062   1.075   1.105   1.146   1.169
  1.171   1.175   1.183   1.234   1.247   1.288   1.307   1.363
  1.378   1.492   1.514   1.557   1.629   1.663   1.722   1.726
  1.727   1.743   1.784   1.827   1.834   1.847   1.891   1.905
  1.943   1.956   1.997   1.999   2.017   2.053   2.087   2.166
  2.203   2.205   2.240   2.266   2.293   2.295   2.315   2.333
  2.339   2.352   2.396   2.405   2.441   2.454   2.514   2.530
  2.573   2.643   2.673   2.692   2.737   2.988   2.991   3.108
  3.109   3.227   3.242   3.548   3.568   3.794   3.802   4.092
  4.094   4.133   4.146   4.252   4.337   4.488   4.528
 
 Beta MOs
 -- Occupied --
-89.098 -89.098 -10.430 -10.430 -10.413 -10.413 -10.390 -10.390
-10.378 -10.378  -8.157  -8.157  -6.121  -6.121  -6.117  -6.117
 -6.114  -6.114  -1.077  -1.054  -0.945  -0.924  -0.921  -0.870
 -0.778  -0.742  -0.731  -0.709  -0.695  -0.646  -0.588  -0.587
 -0.581  -0.576  -0.573  -0.542  -0.541  -0.529  -0.524  -0.438
 -0.432  -0.411
 -- Virtual --
 -0.348  -0.209  -0.196  -0.154  -0.152  -0.128  -0.121  -0.114
 -0.107  -0.099  -0.092  -0.090  -0.086  -0.076  -0.076  -0.063
 -0.061  -0.040  -0.040  -0.036  -0.030  -0.017  -0.011  -0.010
 -0.007  -0.004   0.001   0.003   0.008   0.012   0.017   0.021
  0.023   0.024   0.028   0.035   0.041   0.042   0.048   0.050
  0.065   0.065   0.073   0.074   0.079   0.081   0.090   0.096
  0.102   0.112   0.114   0.119   0.123   0.147   0.152   0.154
  0.159   0.171   0.175   0.194   0.195   0.217   0.226   0.229
  0.239   0.269   0.304   0.312   0.340   0.369   0.374   0.375
  0.418   0.422   0.445   0.452   0.465   0.487   0.504   0.507
  0.517   0.540   0.549   0.560   0.569   0.575   0.596   0.598
  0.621   0.628   0.632   0.642   0.662   0.674   0.714   0.735
  0.757   0.777   0.791   0.796   0.808   0.819   0.829   0.837
  0.843   0.850   0.855   0.861   0.909   0.913   0.923   0.940
  0.941   0.973   1.019   1.026   1.067   1.078   1.107   1.150
  1.175   1.177   1.178   1.190   1.237   1.254   1.292   1.313
  1.372   1.383   1.504   1.527   1.568   1.634   1.670   1.726
  1.729   1.732   1.745   1.788   1.835   1.838   1.852   1.896
  1.912   1.950   1.967   2.001   2.009   2.029   2.059   2.095
  2.171   2.206   2.208   2.243   2.271   2.294   2.299   2.320
  2.337   2.344   2.355   2.400   2.409   2.446   2.458   2.518
  2.534   2.579   2.646   2.676   2.694   2.740   2.989   2.992
  3.108   3.109   3.228   3.244   3.550   3.570   3.795   3.802
  4.099   4.101   4.136   4.149   4.258   4.345   4.491   4.532
 --------------------------------------------------------------
 
          Ground-State Mulliken Net Atomic Charges

     Atom                 Charge (a.u.)    Spin (a.u.)
  --------------------------------------------------------
      1 S                     0.192133      -0.054650
      2 C                     0.048845       0.294579
      3 H                     0.247411      -0.014047
      4 C                    -0.315206      -0.016415
      5 H                     0.174223       0.001387
      6 C                     0.275513       0.091904
      7 H                     0.183605      -0.005106
      8 C                    -0.304423       0.202509
      9 C                    -0.307098       0.202153
     10 C                     0.274372       0.092035
     11 H                     0.183514      -0.005078
     12 C                    -0.315432      -0.016182
     13 H                     0.174190       0.001373
     14 C                     0.049267       0.294171
     15 H                     0.247395      -0.014038
     16 S                     0.191691      -0.054594
  --------------------------------------------------------
  Sum of atomic charges =     1.000000
  Sum of spin   charges =     1.000000

 -----------------------------------------------------------------
                    Cartesian Multipole Moments
 -----------------------------------------------------------------
    Charge (ESU x 10^10)
                 4.8032
    Dipole Moment (Debye)
         X      -3.2143      Y      -0.0348      Z     -10.2864
       Tot      10.7769
    Quadrupole Moments (Debye-Ang)
        XX     -33.6841     XY      -1.2445     YY     -64.6793
        XZ      25.0218     YZ      -3.2619     ZZ     -31.1291
    Octopole Moments (Debye-Ang^2)
       XXX      99.8259    XXY     -12.1674    XYY      32.2052
       YYY     -44.8512    XXZ      23.2218    XYZ       6.5548
       YYZ     116.5903    XZZ     -42.3438    YZZ       1.0044
       ZZZ     279.9277
    Hexadecapole Moments (Debye-Ang^3)
      XXXX   -1283.7583   XXXY      64.7739   XXYY    -294.1574
      XYYY      92.7462   YYYY    -340.5454   XXXZ    -338.3635
      XXYZ      22.4020   XYYZ    -163.6598   YYYZ     160.6473
      XXZZ    -238.7643   XYZZ     -14.1442   YYZZ    -402.7088
      XZZZ    -308.8727   YZZZ      86.8899   ZZZZ   -2010.0701
 -----------------------------------------------------------------
 Calculating analytic gradient of the SCF energy
 Gradient of SCF Energy
            1           2           3           4           5           6
    1  -0.0012403  -0.0018552  -0.0000215   0.0000335  -0.0000677   0.0025425
    2   0.0011663   0.0020547  -0.0004009  -0.0000419   0.0000971  -0.0122415
    3   0.0021620   0.0022639   0.0003079  -0.0046191  -0.0000988  -0.0002806
            7           8           9          10          11          12
    1   0.0001150   0.0050614  -0.0096781   0.0038828   0.0002268   0.0017691
    2  -0.0007666   0.0146428  -0.0040280  -0.0021935  -0.0000457  -0.0040220
    3   0.0000747  -0.0029080   0.0118053  -0.0116369  -0.0006787   0.0011609
           13          14          15          16
    1   0.0000222  -0.0001533   0.0000526  -0.0006898
    2  -0.0000519   0.0029311   0.0002909   0.0026092
    3   0.0001629   0.0020235  -0.0004380   0.0006989
 Max gradient component =       1.464E-02
 RMS gradient           =       4.316E-03
 Gradient time:  CPU 1.93 s  wall 1.89 s
 Geometry Optimization Parameters
   NAtoms,    NIC,     NZ,  NCons,   NDum,   NFix, NCnnct, MaxDiis
       16     111       0       1       0       0       0       0

 Cartesian Hessian Update
 Hessian Updated using BFGS Update


** CONSTRAINED OPTIMIZATION IN DELOCALIZED INTERNAL COORDINATES **
   Searching for a Minimum

   Optimization Cycle:   4

                       Coordinates (Angstroms)
     ATOM                X               Y               Z
      1  S         0.0198727171   -0.1189234122    0.0816186845
      2  C         1.7362283890   -0.1649195723   -0.0458384523
      3  H         2.3400299492   -0.2726002005    0.8481832704
      4  C         2.1925159458   -0.0253830349   -1.3596839992
      5  H         3.2387824995   -0.0855824867   -1.6341264009
      6  C         1.1514140687    0.2033755541   -2.2608618986
      7  H         1.2762264036    0.3237942734   -3.3306871941
      8  C        -0.1172263427    0.2198154327   -1.6418147583
      9  C        -1.4071836962    0.1878849221   -2.2938954491
     10  C        -2.1607180469   -0.9560307071   -2.6352670515
     11  H        -1.8976153937   -1.9486268562   -2.2883530245
     12  C        -3.2293028210   -0.6684815501   -3.4860420289
     13  H        -3.9217596844   -1.4068467725   -3.8720603542
     14  C        -3.3165337476    0.6938233795   -3.7865744406
     15  H        -4.0935885049    1.1889457241   -4.3581657144
     16  S        -2.0308745156    1.6184681567   -3.1118494684
   Point Group: c1    Number of degrees of freedom:    42


   Energy is  -1104.544083435

              Constraints and their Current Values
                                        Value     Constraint
   Dihedral:        6   8   9  10       90.000       90.000
 Hessian Updated using BFGS Update

 41 Hessian modes will be used to form the next step
  Hessian Eigenvalues:
     0.011284    0.045000    0.045000    0.045000    0.045001    0.045002
     0.045003    0.045004    0.045008    0.045012    0.045280    0.049603
     0.159885    0.159947    0.159979    0.159992    0.160000    0.162116
     0.221284    0.222395    0.237839    0.250011    0.252363    0.279243
     0.294453    0.299438    0.312554    0.321289    0.354772    0.354959
     0.355129    0.355216    0.358273    0.358584    0.383491    0.404882
     0.421197    0.461079    0.463584    0.497935    0.581132

 Minimum Search - Taking Simple RFO Step
 Searching for Lamda that Minimizes Along All modes
 Value Taken    Lamda =  -0.00307804
 Calculated Step too Large.  Step scaled by  0.664749
 Step Taken.  Stepsize is  0.300000

                             Maximum     Tolerance    Cnvgd?
         Gradient           0.005575      0.000300      NO
         Displacement       0.242939      0.001200      NO
         Energy change     -0.002493      0.000001      NO


 New Cartesian Coordinates Obtained by Inverse Iteration

 Displacement from previous Coordinates is:  0.760101
 ----------------------------------------------------------------
             Standard Nuclear Orientation (Angstroms)
    I     Atom           X                Y                Z
 ----------------------------------------------------------------
    1      S       0.0310444567    -0.1737719002     0.0893420035
    2      C       1.7405492759    -0.2487034930    -0.0779092889
    3      H       2.3636823298    -0.4188958495     0.7926501470
    4      C       2.1710611006    -0.0210260994    -1.3865642459
    5      H       3.2097969893    -0.0856756670    -1.6873336051
    6      C       1.1158882735     0.2849628530    -2.2461857694
    7      H       1.2178447878     0.4658709107    -3.3101833953
    8      C      -0.1438291526     0.2900767534    -1.6009843168
    9      C      -1.4361374976     0.2385705759    -2.2309212676
   10      C      -2.1784585667    -0.9225447362    -2.5532569832
   11      H      -1.9291459405    -1.8959801747    -2.1463792386
   12      C      -3.2041719318    -0.6813684939    -3.4674601193
   13      H      -3.8782887496    -1.4388189700    -3.8488950947
   14      C      -3.2664024760     0.6591093187    -3.8538825420
   15      H      -4.0183004565     1.1215244308    -4.4831434128
   16      S      -2.0148652225     1.6153833916    -3.1643111509
 ----------------------------------------------------------------
 Nuclear Repulsion Energy =   628.2226156595 hartrees
 There are       43 alpha and       42 beta electrons
 Applying Cartesian multipole field
    Component          Value
    ---------          -----
     (2,0,0)        1.00000E-11
     (0,2,0)        2.00000E-11
     (0,0,2)       -3.00000E-11
 Nucleus-field energy     =    -0.0000000373 hartrees
 Requested basis set is 6-31++G(d,p)
 There are 76 shells and 234 basis functions
 A cutoff of  1.0D-12 yielded   2546 shell pairs
 There are     25094 function pairs

 Q-Chem warning in module /project/projectdirs/jcesr/qchem/qc44/cnl_qc441/compile/cori/qc_src/libqints/qchem/aobasis.C, line 68:

 Using reconstructed effective core potential

 Smallest overlap matrix eigenvalue = 1.57E-06
 Guess MOs from SCF MO coefficient file
 Reading MOs from coefficient file
 Reading MOs from coefficient file
 An unrestricted hybrid HF-DFT SCF calculation will be
 performed using Pulay DIIS extrapolation
 Exchange:     0.2000 Hartree-Fock + 0.0800 Slater + 0.7200 B88
 Correlation:  0.1900 VWN1RPA + 0.8100 LYP
 Using SG-1 standard quadrature grid
 SCF converges when DIIS error is below 1.0E-08
 Geometry optimization detected.  Setting ReadMinima to 0
 Setting SaveMinima to 0
 ---------------------------------------
  Cycle       Energy         DIIS Error
 ---------------------------------------
    1   -1104.5278557697      2.76E-03
    2   -1104.5439263429      4.07E-04
    3   -1104.5388637993      8.93E-04
    4   -1104.5454703621      9.82E-05
    5   -1104.5455325198      5.00E-05
    6   -1104.5455535730      1.03E-05
    7   -1104.5455552791      3.36E-06
    8   -1104.5455556671      1.79E-06
    9   -1104.5455558795      1.05E-06
   10   -1104.5455560377      8.69E-07
   11   -1104.5455561030      3.58E-07
   12   -1104.5455561292      9.79E-08
   13   -1104.5455561301      7.17E-08
   14   -1104.5455561302      1.33E-08
   15   -1104.5455561303      6.05E-09 Convergence criterion met
 ---------------------------------------
 <S^2> = 0.7628
 SCF time:  CPU 10.22 s  wall 10.88 s
 SCF   energy in the final basis set = -1104.5455561303
 Total energy in the final basis set = -1104.5455561303
 
 --------------------------------------------------------------
 
                    Orbital Energies (a.u.)
 --------------------------------------------------------------
 
 Alpha MOs
 -- Occupied --
-89.097 -89.097 -10.434 -10.433 -10.417 -10.417 -10.393 -10.393
-10.378 -10.378  -8.156  -8.156  -6.120  -6.120  -6.116  -6.116
 -6.113  -6.113  -1.085  -1.060  -0.956  -0.927  -0.923  -0.880
 -0.784  -0.748  -0.735  -0.712  -0.697  -0.650  -0.597  -0.592
 -0.586  -0.579  -0.578  -0.556  -0.549  -0.530  -0.524  -0.450
 -0.435  -0.434  -0.412
 -- Virtual --
 -0.230  -0.211  -0.157  -0.155  -0.135  -0.125  -0.123  -0.108
 -0.100  -0.094  -0.090  -0.086  -0.078  -0.077  -0.064  -0.063
 -0.041  -0.041  -0.034  -0.033  -0.019  -0.013  -0.010  -0.006
 -0.004   0.001   0.003   0.005   0.012   0.015   0.019   0.022
  0.023   0.028   0.034   0.037   0.041   0.045   0.048   0.064
  0.068   0.072   0.073   0.078   0.083   0.088   0.097   0.102
  0.110   0.111   0.119   0.119   0.144   0.151   0.155   0.160
  0.169   0.170   0.193   0.195   0.213   0.225   0.226   0.236
  0.261   0.299   0.309   0.341   0.368   0.376   0.379   0.414
  0.415   0.443   0.459   0.462   0.476   0.496   0.501   0.510
  0.533   0.545   0.558   0.568   0.580   0.591   0.598   0.609
  0.614   0.629   0.645   0.655   0.665   0.708   0.734   0.745
  0.765   0.790   0.796   0.807   0.820   0.821   0.828   0.841
  0.851   0.855   0.858   0.910   0.916   0.921   0.933   0.939
  0.975   1.003   1.021   1.063   1.069   1.105   1.145   1.159
  1.166   1.167   1.188   1.217   1.238   1.289   1.314   1.378
  1.384   1.479   1.516   1.545   1.639   1.663   1.720   1.725
  1.725   1.743   1.784   1.826   1.833   1.843   1.894   1.898
  1.939   1.956   1.986   1.995   2.025   2.054   2.082   2.168
  2.203   2.204   2.237   2.272   2.291   2.296   2.313   2.331
  2.339   2.352   2.396   2.406   2.443   2.454   2.509   2.529
  2.572   2.639   2.673   2.692   2.735   2.987   2.991   3.107
  3.108   3.227   3.239   3.546   3.566   3.797   3.805   4.090
  4.091   4.135   4.147   4.250   4.335   4.487   4.525
 
 Beta MOs
 -- Occupied --
-89.097 -89.097 -10.431 -10.430 -10.413 -10.413 -10.392 -10.392
-10.378 -10.378  -8.156  -8.156  -6.121  -6.121  -6.117  -6.116
 -6.114  -6.114  -1.078  -1.055  -0.947  -0.925  -0.921  -0.870
 -0.779  -0.744  -0.730  -0.709  -0.696  -0.647  -0.590  -0.588
 -0.581  -0.576  -0.575  -0.542  -0.541  -0.529  -0.522  -0.438
 -0.432  -0.416
 -- Virtual --
 -0.345  -0.212  -0.193  -0.154  -0.151  -0.129  -0.121  -0.115
 -0.108  -0.100  -0.093  -0.089  -0.086  -0.076  -0.076  -0.064
 -0.062  -0.040  -0.040  -0.033  -0.033  -0.018  -0.012  -0.010
 -0.005  -0.003   0.002   0.005   0.006   0.014   0.017   0.020
  0.022   0.024   0.029   0.034   0.039   0.043   0.046   0.049
  0.065   0.068   0.073   0.075   0.080   0.084   0.090   0.098
  0.102   0.110   0.113   0.120   0.123   0.145   0.152   0.156
  0.162   0.171   0.172   0.195   0.196   0.215   0.226   0.227
  0.238   0.263   0.302   0.310   0.343   0.369   0.377   0.378
  0.416   0.417   0.445   0.461   0.464   0.482   0.505   0.511
  0.514   0.535   0.547   0.559   0.570   0.582   0.595   0.600
  0.615   0.619   0.633   0.647   0.660   0.671   0.710   0.736
  0.750   0.770   0.792   0.797   0.810   0.821   0.823   0.830
  0.844   0.853   0.857   0.860   0.911   0.918   0.922   0.936
  0.941   0.980   1.007   1.025   1.069   1.072   1.107   1.150
  1.162   1.172   1.172   1.194   1.221   1.245   1.293   1.321
  1.383   1.393   1.489   1.529   1.556   1.643   1.670   1.726
  1.727   1.729   1.746   1.787   1.833   1.838   1.848   1.900
  1.905   1.947   1.966   1.992   2.005   2.038   2.060   2.088
  2.174   2.207   2.207   2.240   2.277   2.295   2.298   2.318
  2.335   2.344   2.356   2.400   2.410   2.448   2.458   2.513
  2.533   2.578   2.642   2.676   2.694   2.738   2.989   2.992
  3.108   3.109   3.228   3.241   3.548   3.567   3.797   3.805
  4.097   4.098   4.138   4.150   4.256   4.343   4.491   4.529
 --------------------------------------------------------------
 
          Ground-State Mulliken Net Atomic Charges

     Atom                 Charge (a.u.)    Spin (a.u.)
  --------------------------------------------------------
      1 S                     0.203133      -0.057919
      2 C                     0.047758       0.302416
      3 H                     0.249630      -0.014655
      4 C                    -0.328519      -0.026098
      5 H                     0.174407       0.002089
      6 C                     0.244419       0.112535
      7 H                     0.183593      -0.006683
      8 C                    -0.276824       0.188041
      9 C                    -0.271493       0.188285
     10 C                     0.243410       0.112936
     11 H                     0.183559      -0.006695
     12 C                    -0.327826      -0.026354
     13 H                     0.174362       0.002093
     14 C                     0.047206       0.302745
     15 H                     0.249595      -0.014661
     16 S                     0.203589      -0.058075
  --------------------------------------------------------
  Sum of atomic charges =     1.000000
  Sum of spin   charges =     1.000000

 -----------------------------------------------------------------
                    Cartesian Multipole Moments
 -----------------------------------------------------------------
    Charge (ESU x 10^10)
                 4.8032
    Dipole Moment (Debye)
         X      -3.1682      Y      -0.1369      Z     -10.3712
       Tot      10.8452
    Quadrupole Moments (Debye-Ang)
        XX     -34.4446     XY      -1.0936     YY     -64.7427
        XZ      24.9591     YZ      -3.8992     ZZ     -30.5387
    Octopole Moments (Debye-Ang^2)
       XXX     103.6765    XXY     -14.6404    XYY      33.4837
       YYY     -44.5900    XXZ      24.9647    XYZ       5.3492
       YYZ     117.6421    XZZ     -44.8612    YZZ       3.6186
       ZZZ     273.8251
    Hexadecapole Moments (Debye-Ang^3)
      XXXX   -1286.9681   XXXY      70.5662   XXYY    -293.6020
      XYYY      93.9269   YYYY    -344.7655   XXXZ    -349.4127
      XXYZ      29.4911   XYYZ    -166.7852   YYYZ     171.8292
      XXZZ    -235.5634   XYZZ     -14.8556   YYZZ    -406.2110
      XZZZ    -285.2289   YZZZ      84.3264   ZZZZ   -1980.4326
 -----------------------------------------------------------------
 Calculating analytic gradient of the SCF energy
 Gradient of SCF Energy
            1           2           3           4           5           6
    1   0.0002005  -0.0018751   0.0001993  -0.0001548  -0.0000126   0.0028857
    2   0.0001383   0.0002463   0.0003006   0.0005302  -0.0002423  -0.0133359
    3   0.0002071   0.0020923   0.0001221  -0.0034542   0.0002130   0.0004738
            7           8           9          10          11          12
    1  -0.0002675   0.0023452  -0.0088100   0.0038225   0.0005936   0.0011937
    2  -0.0007766   0.0196380  -0.0048321  -0.0017153  -0.0000079  -0.0029914
    3  -0.0000776  -0.0056745   0.0177876  -0.0128764  -0.0005254   0.0014667
           13          14          15          16
    1   0.0000270   0.0005976  -0.0003469  -0.0003984
    2   0.0001651   0.0027687   0.0000383   0.0000760
    3  -0.0002420   0.0003590   0.0001367  -0.0000082
 Max gradient component =       1.964E-02
 RMS gradient           =       5.110E-03
 Gradient time:  CPU 1.95 s  wall 1.93 s
 Geometry Optimization Parameters
   NAtoms,    NIC,     NZ,  NCons,   NDum,   NFix, NCnnct, MaxDiis
       16     111       0       1       0       0       0       0

 Cartesian Hessian Update
 Hessian Updated using BFGS Update


** CONSTRAINED OPTIMIZATION IN DELOCALIZED INTERNAL COORDINATES **
   Searching for a Minimum

   Optimization Cycle:   5

                       Coordinates (Angstroms)
     ATOM                X               Y               Z
      1  S         0.0310444567   -0.1737719002    0.0893420035
      2  C         1.7405492759   -0.2487034930   -0.0779092889
      3  H         2.3636823298   -0.4188958495    0.7926501470
      4  C         2.1710611006   -0.0210260994   -1.3865642459
      5  H         3.2097969893   -0.0856756670   -1.6873336051
      6  C         1.1158882735    0.2849628530   -2.2461857694
      7  H         1.2178447878    0.4658709107   -3.3101833953
      8  C        -0.1438291526    0.2900767534   -1.6009843168
      9  C        -1.4361374976    0.2385705759   -2.2309212676
     10  C        -2.1784585667   -0.9225447362   -2.5532569832
     11  H        -1.9291459405   -1.8959801747   -2.1463792386
     12  C        -3.2041719318   -0.6813684939   -3.4674601193
     13  H        -3.8782887496   -1.4388189700   -3.8488950947
     14  C        -3.2664024760    0.6591093187   -3.8538825420
     15  H        -4.0183004565    1.1215244308   -4.4831434128
     16  S        -2.0148652225    1.6153833916   -3.1643111509
   Point Group: c1    Number of degrees of freedom:    42


   Energy is  -1104.545556130

              Constraints and their Current Values
                                        Value     Constraint
   Dihedral:        6   8   9  10       90.000       90.000
 Hessian Updated using BFGS Update

 41 Hessian modes will be used to form the next step
  Hessian Eigenvalues:
     0.012480    0.045000    0.045000    0.045000    0.045002    0.045002
     0.045004    0.045007    0.045012    0.045016    0.045582    0.049482
     0.159919    0.159948    0.159991    0.159995    0.160000    0.162714
     0.221283    0.222425    0.237839    0.250003    0.251535    0.279131
     0.294482    0.300113    0.312576    0.324631    0.354772    0.354958
     0.355129    0.355230    0.358272    0.358576    0.384775    0.404882
     0.420731    0.461364    0.463586    0.497938    0.563980

 Minimum Search - Taking Simple RFO Step
 Searching for Lamda that Minimizes Along All modes
 Value Taken    Lamda =  -0.00071070
 Step Taken.  Stepsize is  0.219227

                             Maximum     Tolerance    Cnvgd?
         Gradient           0.002826      0.000300      NO
         Displacement       0.190399      0.001200      NO
         Energy change     -0.001473      0.000001      NO


 New Cartesian Coordinates Obtained by Inverse Iteration

 Displacement from previous Coordinates is:  0.593115
 ----------------------------------------------------------------
             Standard Nuclear Orientation (Angstroms)
    I     Atom           X                Y                Z
 ----------------------------------------------------------------
    1      S       0.0370896056    -0.2099260888     0.0926869654
    2      C       1.7414991548    -0.3110230486    -0.1084377494
    3      H       2.3760604807    -0.5354785815     0.7410958109
    4      C       2.1529231651    -0.0168753496    -1.4072245657
    5      H       3.1848440917    -0.0812090064    -1.7309043854
    6      C       1.0880338290     0.3454777448    -2.2330727511
    7      H       1.1775655052     0.5770800937    -3.2885378998
    8      C      -0.1633606815     0.3419007527    -1.5694887975
    9      C      -1.4587700141     0.2761968889    -2.1837516877
   10      C      -2.1920146001    -0.8957048925    -2.4925651811
   11      H      -1.9615299717    -1.8532211402    -2.0391522801
   12      C      -3.1839574725    -0.6902811791    -3.4523394656
   13      H      -3.8441410527    -1.4635622840    -3.8264377616
   14      C      -3.2237640434     0.6286461229    -3.9013295684
[...]
    8   -1104.5459610319      6.73E-09 Convergence criterion met
 ---------------------------------------
 <S^2> = 0.7633
 SCF time:  CPU 5.31 s  wall 5.19 s
 SCF   energy in the final basis set = -1104.5459610319
 Total energy in the final basis set = -1104.5459610319
 
 --------------------------------------------------------------
 
                    Orbital Energies (a.u.)
 --------------------------------------------------------------
 
 Alpha MOs
 -- Occupied --
-89.096 -89.096 -10.434 -10.434 -10.417 -10.417 -10.395 -10.395
-10.378 -10.378  -8.155  -8.155  -6.120  -6.120  -6.116  -6.116
 -6.112  -6.112  -1.085  -1.060  -0.957  -0.928  -0.922  -0.881
 -0.785  -0.750  -0.734  -0.712  -0.698  -0.651  -0.598  -0.592
 -0.587  -0.580  -0.579  -0.556  -0.548  -0.530  -0.522  -0.453
 -0.435  -0.434  -0.411
 -- Virtual --
 -0.233  -0.210  -0.157  -0.155  -0.136  -0.126  -0.123  -0.109
 -0.100  -0.095  -0.089  -0.086  -0.078  -0.078  -0.065  -0.063
 -0.041  -0.041  -0.035  -0.031  -0.019  -0.015  -0.009  -0.005
 -0.004   0.002   0.004   0.005   0.013   0.014   0.019   0.022
  0.024   0.029   0.034   0.035   0.041   0.044   0.047   0.063
  0.070   0.072   0.073   0.078   0.086   0.088   0.098   0.101
  0.109   0.110   0.120   0.120   0.141   0.149   0.156   0.161
  0.168   0.169   0.192   0.195   0.211   0.225   0.225   0.236
  0.258   0.300   0.310   0.344   0.366   0.380   0.381   0.413
  0.413   0.446   0.461   0.461   0.471   0.495   0.501   0.510
  0.529   0.541   0.557   0.569   0.579   0.590   0.599   0.603
  0.607   0.629   0.650   0.654   0.663   0.706   0.735   0.740
  0.760   0.787   0.802   0.805   0.817   0.822   0.827   0.841
  0.851   0.856   0.860   0.913   0.916   0.921   0.931   0.937
  0.979   1.001   1.019   1.063   1.063   1.109   1.137   1.153
  1.163   1.165   1.191   1.197   1.234   1.292   1.324   1.374
  1.396   1.470   1.516   1.538   1.646   1.661   1.718   1.724
  1.724   1.741   1.785   1.818   1.833   1.838   1.894   1.897
  1.936   1.953   1.984   1.992   2.031   2.055   2.077   2.169
  2.202   2.205   2.235   2.274   2.290   2.299   2.314   2.331
  2.338   2.351   2.396   2.407   2.443   2.455   2.504   2.529
  2.573   2.637   2.674   2.693   2.736   2.987   2.991   3.106
  3.107   3.228   3.238   3.545   3.564   3.797   3.805   4.087
  4.094   4.136   4.148   4.247   4.334   4.487   4.522
 
 Beta MOs
 -- Occupied --
-89.097 -89.097 -10.431 -10.431 -10.413 -10.413 -10.393 -10.393
-10.378 -10.378  -8.156  -8.156  -6.120  -6.120  -6.116  -6.116
 -6.113  -6.113  -1.079  -1.055  -0.949  -0.925  -0.920  -0.871
 -0.780  -0.745  -0.729  -0.709  -0.696  -0.648  -0.590  -0.589
 -0.582  -0.577  -0.576  -0.542  -0.541  -0.528  -0.520  -0.438
 -0.433  -0.420
 -- Virtual --
 -0.343  -0.214  -0.191  -0.153  -0.152  -0.129  -0.121  -0.115
 -0.108  -0.100  -0.094  -0.088  -0.085  -0.077  -0.076  -0.065
 -0.063  -0.040  -0.040  -0.034  -0.030  -0.018  -0.014  -0.009
 -0.003  -0.003   0.002   0.005   0.006   0.015   0.016   0.020
  0.022   0.025   0.030   0.035   0.037   0.043   0.045   0.048
  0.064   0.070   0.073   0.074   0.080   0.087   0.090   0.099
  0.102   0.109   0.111   0.121   0.124   0.142   0.150   0.157
  0.163   0.169   0.172   0.195   0.196   0.213   0.226   0.227
  0.238   0.261   0.303   0.311   0.346   0.367   0.380   0.381
  0.415   0.415   0.447   0.463   0.463   0.478   0.505   0.511
  0.514   0.531   0.543   0.558   0.571   0.581   0.595   0.602
  0.609   0.611   0.634   0.652   0.659   0.669   0.708   0.737
  0.745   0.765   0.789   0.803   0.807   0.819   0.824   0.829
  0.843   0.853   0.857   0.863   0.914   0.917   0.922   0.934
  0.938   0.984   1.004   1.023   1.066   1.068   1.112   1.143
  1.155   1.170   1.170   1.198   1.200   1.241   1.295   1.332
  1.378   1.405   1.480   1.529   1.550   1.651   1.668   1.725
  1.726   1.728   1.744   1.788   1.825   1.838   1.843   1.900
  1.904   1.944   1.960   1.992   2.003   2.045   2.060   2.083
  2.176   2.206   2.208   2.238   2.280   2.293   2.302   2.319
  2.336   2.342   2.355   2.400   2.411   2.448   2.459   2.509
  2.533   2.579   2.640   2.677   2.695   2.739   2.989   2.993
  3.107   3.108   3.229   3.240   3.547   3.566   3.798   3.805
  4.094   4.101   4.139   4.151   4.254   4.342   4.490   4.526
 --------------------------------------------------------------
 
          Ground-State Mulliken Net Atomic Charges

     Atom                 Charge (a.u.)    Spin (a.u.)
  --------------------------------------------------------
      1 S                     0.210309      -0.060574
      2 C                     0.042480       0.303992
      3 H                     0.251766      -0.014725
      4 C                    -0.339440      -0.029452
      5 H                     0.174430       0.002313
      6 C                     0.210265       0.121602
      7 H                     0.182429      -0.007723
      8 C                    -0.235204       0.184120
      9 C                    -0.227061       0.185349
     10 C                     0.205714       0.121609
     11 H                     0.182415      -0.007721
     12 C                    -0.335918      -0.029523
     13 H                     0.174425       0.002315
     14 C                     0.039399       0.303803
     15 H                     0.251676      -0.014704
     16 S                     0.212315      -0.060681
  --------------------------------------------------------
  Sum of atomic charges =     1.000000
  Sum of spin   charges =     1.000000

 -----------------------------------------------------------------
                    Cartesian Multipole Moments
 -----------------------------------------------------------------
    Charge (ESU x 10^10)
                 4.8032
    Dipole Moment (Debye)
         X      -3.1309      Y      -0.2177      Z     -10.4367
       Tot      10.8983
    Quadrupole Moments (Debye-Ang)
        XX     -35.0300     XY      -0.8755     YY     -64.7393
        XZ      24.7644     YZ      -4.3527     ZZ     -30.1636
    Octopole Moments (Debye-Ang^2)
       XXX     106.8932    XXY     -16.9369    XYY      34.6099
       YYY     -44.5148    XXZ      26.5378    XYZ       4.0099
       YYZ     118.5018    XZZ     -46.3364    YZZ       5.4154
       ZZZ     269.1239
    Hexadecapole Moments (Debye-Ang^3)
      XXXX   -1292.0509   XXXY      76.4010   XXYY    -292.7797
      XYYY      94.4761   YYYY    -348.4951   XXXZ    -360.0591
      XXYZ      35.5305   XYYZ    -169.1395   YYYZ     178.9516
      XXZZ    -235.0328   XYZZ     -14.0844   YYZZ    -408.9759
      XZZZ    -267.0174   YZZZ      81.7698   ZZZZ   -1952.7797
 -----------------------------------------------------------------
 Calculating analytic gradient of the SCF energy
 Gradient of SCF Energy
            1           2           3           4           5           6
    1  -0.0000489   0.0000582  -0.0000150   0.0000161  -0.0000047   0.0003502
    2   0.0000021  -0.0000401   0.0000076  -0.0000070  -0.0000312  -0.0149977
    3   0.0000182  -0.0000612   0.0000154   0.0000986  -0.0000103   0.0007293
            7           8           9          10          11          12
    1   0.0000165   0.0031819  -0.0100287   0.0064918  -0.0000087  -0.0000515
    2  -0.0000189   0.0236146  -0.0082062  -0.0004041  -0.0000020   0.0000865
    3   0.0000011  -0.0092296   0.0220572  -0.0135333  -0.0000147  -0.0000388
           13          14          15          16
    1   0.0000094   0.0000066   0.0000031   0.0000239
    2   0.0000004  -0.0000839   0.0000264   0.0000535
    3  -0.0000063  -0.0000313   0.0000089  -0.0000033
 Max gradient component =       2.361E-02
 RMS gradient           =       6.053E-03
 Gradient time:  CPU 1.92 s  wall 1.89 s
 Geometry Optimization Parameters
   NAtoms,    NIC,     NZ,  NCons,   NDum,   NFix, NCnnct, MaxDiis
       16     111       0       1       0       0       0       0

 Cartesian Hessian Update
 Hessian Updated using BFGS Update


** CONSTRAINED OPTIMIZATION IN DELOCALIZED INTERNAL COORDINATES **
   Searching for a Minimum

   Optimization Cycle:   9

                       Coordinates (Angstroms)
     ATOM                X               Y               Z
      1  S         0.0372688694   -0.2085404551    0.0920893871
      2  C         1.7432666509   -0.3095479701   -0.1084493336
      3  H         2.3747022618   -0.5450957444    0.7403166437
      4  C         2.1550729465   -0.0157132126   -1.4058619235
      5  H         3.1871736693   -0.0738762981   -1.7302800728
      6  C         1.0898468526    0.3446018575   -2.2340728785
      7  H         1.1854209273    0.5861574089   -3.2868030386
      8  C        -0.1609005008    0.3397745361   -1.5733107868
      9  C        -1.4579558286    0.2724113164   -2.1858712469
     10  C        -2.1919726720   -0.8969142487   -2.4938539778
     11  H        -1.9720055877   -1.8538145878   -2.0337521357
     12  C        -3.1862877762   -0.6901674475   -3.4525098395
     13  H        -3.8492138675   -1.4640874111   -3.8205015382
     14  C        -3.2262431153    0.6276763645   -3.9006143160
     15  H        -3.9444097731    1.0635640049   -4.5853689931
     16  S        -2.0034958365    1.6122847372   -3.1965742298
   Point Group: c1    Number of degrees of freedom:    42


   Energy is  -1104.545961032

              Constraints and their Current Values
                                        Value     Constraint
   Dihedral:        6   8   9  10       90.000       90.000
 Hessian Updated using BFGS Update

 41 Hessian modes will be used to form the next step
  Hessian Eigenvalues:
     0.013771    0.019830    0.043662    0.045000    0.045000    0.045001
     0.045003    0.045005    0.045012    0.045021    0.045678    0.048772
     0.140809    0.159949    0.159961    0.159998    0.160008    0.160144
     0.221023    0.222851    0.238050    0.239838    0.250014    0.277485
     0.284156    0.295427    0.303080    0.312711    0.354803    0.354952
     0.355127    0.355133    0.358276    0.358644    0.392505    0.405031
     0.433374    0.454000    0.463704    0.497446    0.504311

 Minimum Search - Taking Simple RFO Step
 Searching for Lamda that Minimizes Along All modes
 Value Taken    Lamda =   0.00000000
 Step Taken.  Stepsize is  0.002029

                             Maximum     Tolerance    Cnvgd?
         Gradient           0.000082      0.000300     YES
         Displacement       0.001147      0.001200     YES
         Energy change     -0.000000      0.000001     YES

 Final energy is   -1104.54596103187     


 ******************************
 **  OPTIMIZATION CONVERGED  **
 ******************************

                       Coordinates (Angstroms)
     ATOM                X               Y               Z
      1  S         0.0372688694   -0.2085404551    0.0920893871
      2  C         1.7432666509   -0.3095479701   -0.1084493336
      3  H         2.3747022618   -0.5450957444    0.7403166437
      4  C         2.1550729465   -0.0157132126   -1.4058619235
      5  H         3.1871736693   -0.0738762981   -1.7302800728
      6  C         1.0898468526    0.3446018575   -2.2340728785
      7  H         1.1854209273    0.5861574089   -3.2868030386
      8  C        -0.1609005008    0.3397745361   -1.5733107868
      9  C        -1.4579558286    0.2724113164   -2.1858712469
     10  C        -2.1919726720   -0.8969142487   -2.4938539778
     11  H        -1.9720055877   -1.8538145878   -2.0337521357
     12  C        -3.1862877762   -0.6901674475   -3.4525098395
     13  H        -3.8492138675   -1.4640874111   -3.8205015382
     14  C        -3.2262431153    0.6276763645   -3.9006143160
     15  H        -3.9444097731    1.0635640049   -4.5853689931
     16  S        -2.0034958365    1.6122847372   -3.1965742298

Z-matrix Print:
$molecule
1 2
S 
C  1 1.720534
H  2 1.083813 1 119.953322
C  2 1.392518 1 112.924123 3 -177.803747 0
H  4 1.083439 2 123.309263 1 -177.068885 0
C  4 1.396577 2 112.421549 1 2.288954 0
H  6 1.084314 4 124.495723 2 -178.283429 0
C  6 1.414552 4 113.360863 2 0.439553 0
C  8 1.436009 6 126.894690 4 -160.226251 0
C  9 1.414567 8 126.836730 6 90.000000 0
H  10 1.084308 9 122.154528 8 18.342326 0
C  10 1.396591 9 113.360346 8 -160.376583 0
H  12 1.083449 10 124.254163 9 179.736774 0
C  12 1.392553 10 112.419814 9 0.398235 0
H  14 1.083788 12 127.100076 10 -175.303269 0
S  14 1.720711 12 112.916387 10 2.328720 0
$end

 
 --------------------------------------------------------------
 
                    Orbital Energies (a.u.)
 --------------------------------------------------------------
 
 Alpha MOs
 -- Occupied --
-89.096 -89.096 -10.434 -10.434 -10.417 -10.417 -10.395 -10.395
-10.378 -10.378  -8.155  -8.155  -6.120  -6.120  -6.116  -6.116
 -6.112  -6.112  -1.085  -1.060  -0.957  -0.928  -0.922  -0.881
 -0.785  -0.750  -0.734  -0.712  -0.698  -0.651  -0.598  -0.592
 -0.587  -0.580  -0.579  -0.556  -0.548  -0.530  -0.522  -0.453
 -0.435  -0.434  -0.411
 -- Virtual --
 -0.233  -0.210  -0.157  -0.155  -0.136  -0.126  -0.123  -0.109
 -0.100  -0.095  -0.089  -0.086  -0.078  -0.078  -0.065  -0.063
 -0.041  -0.041  -0.035  -0.031  -0.019  -0.015  -0.009  -0.005
 -0.004   0.002   0.004   0.005   0.013   0.014   0.019   0.022
  0.024   0.029   0.034   0.035   0.041   0.044   0.047   0.063
  0.070   0.072   0.073   0.078   0.086   0.088   0.098   0.101
  0.109   0.110   0.120   0.120   0.141   0.149   0.156   0.161
  0.168   0.169   0.192   0.195   0.211   0.225   0.225   0.236
  0.258   0.300   0.310   0.344   0.366   0.380   0.381   0.413
  0.413   0.446   0.461   0.461   0.471   0.495   0.501   0.510
  0.529   0.541   0.557   0.569   0.579   0.590   0.599   0.603
  0.607   0.629   0.650   0.654   0.663   0.706   0.735   0.740
  0.760   0.787   0.802   0.805   0.817   0.822   0.827   0.841
  0.851   0.856   0.860   0.913   0.916   0.921   0.931   0.937
  0.979   1.001   1.019   1.063   1.063   1.109   1.137   1.153
  1.163   1.165   1.191   1.197   1.234   1.292   1.324   1.374
  1.396   1.470   1.516   1.538   1.646   1.661   1.718   1.724
  1.724   1.741   1.785   1.818   1.833   1.838   1.894   1.897
  1.936   1.953   1.984   1.992   2.031   2.055   2.077   2.169
  2.202   2.205   2.235   2.274   2.290   2.299   2.314   2.331
  2.338   2.351   2.396   2.407   2.443   2.455   2.504   2.529
  2.573   2.637   2.674   2.693   2.736   2.987   2.991   3.106
  3.107   3.228   3.238   3.545   3.564   3.797   3.805   4.087
  4.094   4.136   4.148   4.247   4.334   4.487   4.522
 
 Beta MOs
 -- Occupied --
-89.097 -89.097 -10.431 -10.431 -10.413 -10.413 -10.393 -10.393
-10.378 -10.378  -8.156  -8.156  -6.120  -6.120  -6.116  -6.116
 -6.113  -6.113  -1.079  -1.055  -0.949  -0.925  -0.920  -0.871
 -0.780  -0.745  -0.729  -0.709  -0.696  -0.648  -0.590  -0.589
 -0.582  -0.577  -0.576  -0.542  -0.541  -0.528  -0.520  -0.438
 -0.433  -0.420
 -- Virtual --
 -0.343  -0.214  -0.191  -0.153  -0.152  -0.129  -0.121  -0.115
 -0.108  -0.100  -0.094  -0.088  -0.085  -0.077  -0.076  -0.065
 -0.063  -0.040  -0.040  -0.034  -0.030  -0.018  -0.014  -0.009
 -0.003  -0.003   0.002   0.005   0.006   0.015   0.016   0.020
  0.022   0.025   0.030   0.035   0.037   0.043   0.045   0.048
  0.064   0.070   0.073   0.074   0.080   0.087   0.090   0.099
  0.102   0.109   0.111   0.121   0.124   0.142   0.150   0.157
  0.163   0.169   0.172   0.195   0.196   0.213   0.226   0.227
  0.238   0.261   0.303   0.311   0.346   0.367   0.380   0.381
  0.415   0.415   0.447   0.463   0.463   0.478   0.505   0.511
  0.514   0.531   0.543   0.558   0.571   0.581   0.595   0.602
  0.609   0.611   0.634   0.652   0.659   0.669   0.708   0.737
  0.745   0.765   0.789   0.803   0.807   0.819   0.824   0.829
  0.843   0.853   0.857   0.863   0.914   0.917   0.922   0.934
  0.938   0.984   1.004   1.023   1.066   1.068   1.112   1.143
  1.155   1.170   1.170   1.198   1.200   1.241   1.295   1.332
  1.378   1.405   1.480   1.529   1.550   1.651   1.668   1.725
  1.726   1.728   1.744   1.788   1.825   1.838   1.843   1.900
  1.904   1.944   1.960   1.992   2.003   2.045   2.060   2.083
  2.176   2.206   2.208   2.238   2.280   2.293   2.302   2.319
  2.336   2.342   2.355   2.400   2.411   2.448   2.459   2.509
  2.533   2.579   2.640   2.677   2.695   2.739   2.989   2.993
  3.107   3.108   3.229   3.240   3.547   3.566   3.798   3.805
  4.094   4.101   4.139   4.151   4.254   4.342   4.490   4.526
 --------------------------------------------------------------
 
          Ground-State Mulliken Net Atomic Charges

     Atom                 Charge (a.u.)    Spin (a.u.)
  --------------------------------------------------------
      1 S                     0.210309      -0.060574
      2 C                     0.042480       0.303992
      3 H                     0.251766      -0.014725
      4 C                    -0.339440      -0.029452
      5 H                     0.174430       0.002313
      6 C                     0.210265       0.121602
      7 H                     0.182429      -0.007723
      8 C                    -0.235204       0.184120
      9 C                    -0.227061       0.185349
     10 C                     0.205714       0.121609
     11 H                     0.182415      -0.007721
     12 C                    -0.335918      -0.029523
     13 H                     0.174425       0.002315
     14 C                     0.039399       0.303803
     15 H                     0.251676      -0.014704
     16 S                     0.212315      -0.060681
  --------------------------------------------------------
  Sum of atomic charges =     1.000000
  Sum of spin   charges =     1.000000

 -----------------------------------------------------------------
                    Cartesian Multipole Moments
 -----------------------------------------------------------------
    Charge (ESU x 10^10)
                 4.8032
    Dipole Moment (Debye)
         X      -3.1309      Y      -0.2177      Z     -10.4367
       Tot      10.8983
    Quadrupole Moments (Debye-Ang)
        XX     -35.0300     XY      -0.8755     YY     -64.7393
        XZ      24.7644     YZ      -4.3527     ZZ     -30.1636
    Octopole Moments (Debye-Ang^2)
       XXX     106.8932    XXY     -16.9369    XYY      34.6099
       YYY     -44.5148    XXZ      26.5378    XYZ       4.0099
       YYZ     118.5018    XZZ     -46.3364    YZZ       5.4154
       ZZZ     269.1239
    Hexadecapole Moments (Debye-Ang^3)
      XXXX   -1292.0509   XXXY      76.4010   XXYY    -292.7797
      XYYY      94.4761   YYYY    -348.4951   XXXZ    -360.0591
      XXYZ      35.5305   XYYZ    -169.1395   YYYZ     178.9516
      XXZZ    -235.0328   XYZZ     -14.0844   YYZZ    -408.9759
      XZZZ    -267.0174   YZZZ      81.7698   ZZZZ   -1952.7797
 -----------------------------------------------------------------
Archival summary:
1\1\nid00820\OPT\ProcedureUnspecified\BasisUnspecified\286(1+,2)\bwood\WedMay3102:27:472017WedMay3102:27:472017\0\\#,OPT,ProcedureUnspecified,BasisUnspecified,\\1,2\S\C,1,1.72053\H,2,1.08381,1,119.953\C,2,1.39252,1,112.924,3,-177.804,0\H,4,1.08344,2,123.309,1,-177.069,0\C,4,1.39658,2,112.422,1,2.28895,0\H,6,1.08431,4,124.496,2,-178.283,0\C,6,1.41455,4,113.361,2,0.439553,0\C,8,1.43601,6,126.895,4,-160.226,0\C,9,1.41457,8,126.837,6,90,0\H,10,1.08431,9,122.155,8,18.3423,0\C,10,1.39659,9,113.36,8,-160.377,0\H,12,1.08345,10,124.254,9,179.737,0\C,12,1.39255,10,112.42,9,0.398235,0\H,14,1.08379,12,127.1,10,-175.303,0\S,14,1.72071,12,112.916,10,2.32872,0\\\@

 Total job time:  116.41s(wall), 116.03s(cpu) 
 Wed May 31 02:27:47 2017

        *************************************************************
        *                                                           *
        *  Thank you very much for using Q-Chem.  Have a nice day.  *
        *                                                           *
        *************************************************************


0 sent ACK to 0 
now end server 0 ... 
