srun -N 1 --ntasks-per-node 16 --cpus-per-task 4 --cpu_bind=cores --nodelist nid00806 /global/project/projectdirs/jcesr/qchem/qc44/cnl_qc441/dist/exe/qcprog.cori.haswell.exe .pt_n2_cation_-90.0.in.26834.qcin.1 /global/cscratch1/sd/bwood/qchem/nx/qchem26834/
Process 1 of 16 is on nid00806 - thread support 0
Process 2 of 16 is on nid00806 - thread support 0
Process 6 of 16 is on nid00806 - thread support 0
Process 0 of 16 is on nid00806 - thread support 0
Process 3 of 16 is on nid00806 - thread support 0
Process 4 of 16 is on nid00806 - thread support 0
Process 5 of 16 is on nid00806 - thread support 0
Process 15 of 16 is on nid00806 - thread support 0
initial socket setup ...start
initial socket setup ...done 
now start server 0 ... 
nid00806 10.128.3
Q-Chem Developer Version! Running on 10.128.3.*
                  Welcome to Q-Chem
     A Quantum Leap Into The Future Of Chemistry


 Q-Chem 4.4, Q-Chem, Inc., Pleasanton, CA (2016)

 Y. Shao,  Z. Gan,  E. Epifanovsky,  A. T. B. Gilbert,  M. Wormit,  
 J. Kussmann,  A. W. Lange,  A. Behn,  J. Deng,  X. Feng,  D. Ghosh,  
 M. Goldey,  P. R. Horn,  L. D. Jacobson,  I. Kaliman,  F. Rob,  
 R. Z. Khaliullin,  T. Kus,  A. Landau,  J. Liu,  E. I. Proynov,  Y. M. Rhee,  
 R. M. Richard,  M. A. Rohrdanz,  R. P. Steele,  E. J. Sundstrom,  
 H. L. Woodcock III,  P. M. Zimmerman,  D. Zuev,  B. Albrecht,  E. Alguire,  
 B. Austin,  S. A. Baeppler,  G. J. O. Beran,  Y. A. Bernard,  
 E. J. Berquist,  K. Brandhorst,  K. B. Bravaya,  S. T. Brown,  D. Casanova,  
 C.-M. Chang,  Y. Chen,  S. H. Chien,  K. D. Closser,  M. P. Coons,  
 D. L. Crittenden,  S. Dasgupta,  M. Diedenhofen,  R. A. DiStasio Jr.,  
 H. Do,  A. D. Dutoi,  R. G. Edgar,  P.-T. Fang,  S. Fatehi,  Q. Feng,  
 L. Fusti-Molnar,  A. Ghysels,  A. Golubeva-Zadorozhnaya,  J. Gomes,  
 A. Gunina,  M. W. D. Hanson-Heine,  P. H. P. Harbach,  A. W. Hauser,  
 J. E. Herr,  E. G. Hohenstein,  Z. C. Holden,  K. Hui,  T.-C. Jagau,  H. Ji,  
 B. Kaduk,  K. Khistyaev,  Jaehoon Kim,  Jihan Kim,  R. A. King,  
 P. Klunzinger,  K. Koh,  D. Kosenkov,  T. Kowalczyk,  C. M. Krauter,  
 A. Kunitsa,  K. U. Lao,  A. Laurent,  K. V. Lawler,  J. Lee,  D. Lefrancois,  
 S. Lehtola,  S. V. Levchenko,  C. Y. Lin,  Y.-S. Lin,  F. Liu,  E. Livshits,  
 R. C. Lochan,  A. Luenser,  P. Manohar,  S. F. Manzer,  S.-P. Mao,  Y. Mao,  
 N. Mardirossian,  A. V. Marenich,  L. A. Martinez-Martinez,  S. A. Maurer,  
 N. J. Mayhall,  J.-M. Mewes,  A. F. Morrison,  K. Nanda,  T. S. Nguyen-Beck,  
 C. M. Oana,  R. Olivares-Amaya,  D. P. O'Neill,  J. A. Parkhill,  
 T. M. Perrine,  R. Peverati,  P. A. Pieniazek,  F. Plasser,  A. Prociuk,  
 D. R. Rehn,  E. Rosta,  N. J. Russ,  N. Sergueev,  S. M. Sharada,  
 S. Sharma,  D. W. Small,  A. Sodt,  T. Stauch,  T. Stein,  D. Stuck,  
 Y.-C. Su,  A. J. W. Thom,  T. Tsuchimochi,  L. Vogt,  O. Vydrov,  T. Wang,  
 M. A. Watson,  J. Wenzel,  A. White,  C. F. Williams,  V. Vanovschi,  
 K. Yao,  S. Yeganeh,  S. R. Yost,  Z.-Q. You,  I. Y. Zhang,  X. Zhang,  
 Y. Zhao,  B. R. Brooks,  G. K. L. Chan,  D. M. Chipman,  C. J. Cramer,  
 W. A. Goddard III,  M. S. Gordon,  W. J. Hehre,  A. Klamt,  
 H. F. Schaefer III,  M. W. Schmidt,  C. D. Sherrill,  D. G. Truhlar,  
 A. Warshel,  X. Xu,  A. Aspuru-Guzik,  R. Baer,  A. T. Bell,  N. A. Besley,  
 J.-D. Chai,  A. Dreuw,  B. D. Dunietz,  T. R. Furlani,  S. R. Gwaltney,  
 C.-P. Hsu,  Y. Jung,  J. Kong,  D. S. Lambrecht,  W. Liang,  C. Ochsenfeld,  
 V. A. Rassolov,  L. V. Slipchenko,  J. E. Subotnik,  T. Van Voorhis,  
 J. M. Herbert,  A. I. Krylov,  P. M. W. Gill,  M. Head-Gordon

 Contributors to earlier versions of Q-Chem not listed above: 
 R. D. Adamson,  J. Baker,  E. F. C. Byrd,  A. K. Chakraborty,  C.-L. Cheng,  
 H. Dachsel,  R. J. Doerksen,  G. Hawkins,  A. Heyden,  S. Hirata,  
 G. Kedziora,  F. J. Keil,  C. Kelley,  P. P. Korambath,  W. Kurlancheek,  
 A. M. Lee,  M. S. Lee,  D. Liotard,  I. Lotan,  P. E. Maslen,  N. Nair,  
 D. Neuhauser,  R. Olson,  B. Peters,  J. Ritchie,  N. E. Schultz,  
 N. Shenvi,  A. C. Simmonett,  K. S. Thanthiriwatte,  Q. Wu,  W. Zhang

 Please cite Q-Chem as follows:
 Y. Shao et al., Mol. Phys. 113, 184-215 (2015)
 DOI: 10.1080/00268976.2014.952696

 Q-Chem 4.4.2 for Intel X86 EM64T Linux

 Parts of Q-Chem use Armadillo 5.200.1 (Boston Tea Smuggler).
 http://arma.sourceforge.net/

 Q-Chem begins on Wed May 31 02:25:49 2017  

Host: nid00776
0

     Scratch files written to /global/cscratch1/sd/bwood/qchem/nx/qchem26834.0//
 Parallel job on  16  processors

Checking the input file for inconsistencies... 	...done.

--------------------------------------------------------------
User input:
--------------------------------------------------------------
$molecule
 1  2
 S           0.00238887        0.06077275        0.00183269
 C           1.73707619        0.03315849        0.00323229
 H           2.27612737        0.05289032        0.94042557
 C           2.24169204       -0.01546201       -1.26965798
 H           3.30285780       -0.04005365       -1.48972496
 C           1.22479222       -0.01612968       -2.26811464
 H           1.42674790       -0.02650987       -3.33334501
 C          -0.05393771        0.02880388       -1.75170966
 C          -1.32450815        0.04889988       -2.45636342
 C          -2.05472866        1.13282256       -2.89900103
 H          -1.72213594        2.15679461       -2.76984460
 C          -3.26126766        0.77165000       -3.56586141
 H          -3.95577893        1.48958389       -3.98695482
 C          -3.44713742       -0.58418270       -3.63146872
 H          -4.26391881       -1.13010283       -4.08348711
 S          -2.15318545       -1.44470960       -2.86028972
$end


$rem
         jobtype = opt
        exchange = b3lyp
           basis = 6-31++g**
  max_scf_cycles = 150
      mem_static = 775
       mem_total = 7750
      sym_ignore = true
        symmetry = false
          thresh = 12
$end


$opt
CONSTRAINT
tors 6 8 9 10 -90.0
ENDCONSTRAINT
$end

--------------------------------------------------------------
 ----------------------------------------------------------------
             Standard Nuclear Orientation (Angstroms)
    I     Atom           X                Y                Z
 ----------------------------------------------------------------
    1      S       0.0023888700     0.0607727500     0.0018326900
    2      C       1.7370761900     0.0331584900     0.0032322900
    3      H       2.2761273700     0.0528903200     0.9404255700
    4      C       2.2416920400    -0.0154620100    -1.2696579800
    5      H       3.3028578000    -0.0400536500    -1.4897249600
    6      C       1.2247922200    -0.0161296800    -2.2681146400
    7      H       1.4267479000    -0.0265098700    -3.3333450100
    8      C      -0.0539377100     0.0288038800    -1.7517096600
    9      C      -1.3245081500     0.0488998800    -2.4563634200
   10      C      -2.0547286600     1.1328225600    -2.8990010300
   11      H      -1.7221359400     2.1567946100    -2.7698446000
   12      C      -3.2612676600     0.7716500000    -3.5658614100
   13      H      -3.9557789300     1.4895838900    -3.9869548200
   14      C      -3.4471374200    -0.5841827000    -3.6314687200
   15      H      -4.2639188100    -1.1301028300    -4.0834871100
   16      S      -2.1531854500    -1.4447096000    -2.8602897200
 ----------------------------------------------------------------
 Nuclear Repulsion Energy =   628.6476756359 hartrees
 There are       43 alpha and       42 beta electrons
 Requested basis set is 6-31++G(d,p)
 There are 76 shells and 234 basis functions

 Total QAlloc Memory Limit   7750 MB
 Mega-Array Size       758 MB
 MEM_STATIC part       775 MB
 A cutoff of  1.0D-12 yielded   2528 shell pairs
 There are     24880 function pairs

 Q-Chem warning in module /project/projectdirs/jcesr/qchem/qc44/cnl_qc441/compile/cori/qc_src/libqints/qchem/aobasis.C, line 68:

 Using reconstructed effective core potential

 
 -------------------------------------------------------
 OpenMP Integral Computing Module                       
 Release: version 1.0, May 2013, Q-Chem Inc. Pittsburgh 
 -------------------------------------------------------
 Integral Job Info:
 Integral job number is                      11
 Integral operator is                         1
 short-range coefficients                     0
 long-range coefficients              100000000
 Omega coefficients                           0
 if combine SR and LR in K                    0
 Integral screening is                        0
 Integral computing path is                   2
 max size of driver memory is            800000
 size of driver memory is                593474
 size of scratch memory is             15166112
 max col of scratch BK array               1296
 max len of scratch array in speh3          155
 max len of scratch index in speh4           18
 max int batch size is                      520
 min int batch size is                       52
 fixed nKL is                                52
 max L of basis functions is                  2
 order of int derivative is                   0
 number of shells is                         76
 number of basis is                         234
 number of cartesian basis is               234
 number of contracted shell pairs          2528
 number of primitive shell pairs           8214
 maxK2 (contraction) of shell pair           36
 max number of K2 of shell pair               1
 max number of CS2 of shell pair            266
 max number of PS2 of shell pair           1512
 mem total for path MDJ                   51992
 -------------------------------------------------------
 Smallest overlap matrix eigenvalue = 1.09E-06

 Scale SEOQF with 1.000000e-01/1.000000e-01/1.000000e-01

 Standard Electronic Orientation quadrupole field applied
 Nucleus-field energy     =    -0.0000000354 hartrees
 Guess from superposition of atomic densities
 Warning:  Energy on first SCF cycle will be non-variational
 An unrestricted hybrid HF-DFT SCF calculation will be
 performed using Pulay DIIS extrapolation
 Exchange:     0.2000 Hartree-Fock + 0.0800 Slater + 0.7200 B88
 Correlation:  0.1900 VWN1RPA + 0.8100 LYP
 Using SG-1 standard quadrature grid
 SCF converges when DIIS error is below 1.0E-08
 Inaccurate integrated density:
   Number of electrons =    85
   Numerical integral  =    86.000039033016
   Relative error      =     1.1765165094 %
 ---------------------------------------
  Cycle       Energy         DIIS Error
 ---------------------------------------
    1   -1107.1721151343      4.40E-02
    2   -1104.3493860771      4.59E-03
    3   -1103.8038649238      8.94E-03
    4   -1104.4421818230      2.89E-03
    5   -1104.4962531698      1.59E-03
    6   -1104.5072430205      1.30E-03
    7   -1104.5266732206      2.75E-04
    8   -1104.5279023619      1.31E-04
    9   -1104.5285005794      1.14E-04
   10   -1104.5294305896      7.45E-05
   11   -1104.5299863350      4.28E-05
   12   -1104.5304048528      2.82E-05
   13   -1104.5304911992      1.41E-05
   14   -1104.5305476542      1.06E-05
   15   -1104.5305591459      7.98E-06
   16   -1104.5305647550      7.24E-06
   17   -1104.5305656503      4.93E-06
   18   -1104.5305660378      1.60E-06
   19   -1104.5305661130      4.51E-07
   20   -1104.5305661171      1.60E-07
   21   -1104.5305661191      1.01E-07
   22   -1104.5305661215      4.62E-08
   23   -1104.5305661212      3.74E-08
   24   -1104.5305661216      3.57E-08
   25   -1104.5305661218      2.38E-08
   26   -1104.5305661221      6.05E-09 Convergence criterion met
 ---------------------------------------
 <S^2> = 0.7583
 SCF time:  CPU 17.45 s  wall 16.64 s
 SCF   energy in the final basis set = -1104.5305661221
 Total energy in the final basis set = -1104.5305661221
 
 --------------------------------------------------------------
 
                    Orbital Energies (a.u.)
 --------------------------------------------------------------
 
 Alpha MOs
 -- Occupied --
-89.095 -89.095 -10.434 -10.434 -10.416 -10.416 -10.389 -10.388
-10.380 -10.380  -8.153  -8.153  -6.118  -6.118  -6.114  -6.114
 -6.110  -6.110  -1.087  -1.062  -0.960  -0.919  -0.919  -0.892
 -0.786  -0.744  -0.743  -0.710  -0.696  -0.653  -0.598  -0.594
 -0.592  -0.582  -0.574  -0.554  -0.554  -0.522  -0.521  -0.437
 -0.437  -0.432  -0.428
 -- Virtual --
 -0.216  -0.215  -0.153  -0.151  -0.137  -0.126  -0.124  -0.107
 -0.098  -0.092  -0.090  -0.088  -0.078  -0.078  -0.061  -0.061
 -0.043  -0.043  -0.040  -0.028  -0.019  -0.016  -0.009  -0.005
 -0.004  -0.002   0.002   0.003   0.012   0.014   0.023   0.023
  0.025   0.026   0.036   0.038   0.040   0.050   0.051   0.059
  0.062   0.064   0.071   0.074   0.079   0.089   0.094   0.103
  0.119   0.120   0.122   0.131   0.139   0.146   0.147   0.158
  0.168   0.178   0.179   0.186   0.221   0.224   0.235   0.245
  0.277   0.308   0.321   0.322   0.364   0.370   0.394   0.420
  0.425   0.428   0.455   0.468   0.476   0.491   0.502   0.510
  0.523   0.535   0.563   0.565   0.572   0.584   0.604   0.605
  0.631   0.635   0.642   0.659   0.674   0.725   0.742   0.765
  0.771   0.788   0.799   0.805   0.814   0.835   0.836   0.849
  0.850   0.860   0.868   0.890   0.914   0.929   0.934   0.946
  0.969   1.015   1.045   1.052   1.084   1.112   1.154   1.162
  1.169   1.176   1.185   1.219   1.282   1.295   1.305   1.343
  1.387   1.506   1.510   1.601   1.635   1.655   1.700   1.706
  1.743   1.749   1.781   1.790   1.837   1.843   1.888   1.922
  1.945   1.978   2.001   2.015   2.022   2.075   2.087   2.161
  2.198   2.205   2.257   2.260   2.295   2.299   2.321   2.338
  2.340   2.353   2.409   2.417   2.436   2.469   2.527   2.529
  2.574   2.651   2.683   2.703   2.757   2.995   2.997   3.109
  3.111   3.233   3.258   3.551   3.569   3.793   3.796   4.093
  4.127   4.132   4.150   4.254   4.345   4.483   4.530
 
 Beta MOs
 -- Occupied --
-89.095 -89.095 -10.431 -10.431 -10.412 -10.412 -10.388 -10.388
-10.380 -10.380  -8.154  -8.154  -6.118  -6.118  -6.114  -6.114
 -6.111  -6.111  -1.080  -1.057  -0.950  -0.917  -0.917  -0.882
 -0.781  -0.740  -0.738  -0.707  -0.695  -0.650  -0.594  -0.588
 -0.586  -0.579  -0.572  -0.544  -0.542  -0.520  -0.520  -0.434
 -0.427  -0.404
 -- Virtual --
 -0.371  -0.201  -0.198  -0.149  -0.148  -0.128  -0.122  -0.117
 -0.106  -0.097  -0.092  -0.089  -0.088  -0.076  -0.076  -0.060
 -0.060  -0.042  -0.042  -0.039  -0.026  -0.018  -0.016  -0.008
 -0.004  -0.004  -0.002   0.003   0.004   0.013   0.015   0.024
  0.024   0.026   0.027   0.039   0.039   0.041   0.051   0.053
  0.059   0.063   0.065   0.072   0.075   0.080   0.090   0.095
  0.103   0.120   0.121   0.124   0.133   0.142   0.147   0.148
  0.160   0.170   0.180   0.181   0.188   0.223   0.225   0.237
  0.247   0.280   0.311   0.324   0.324   0.365   0.372   0.396
  0.422   0.425   0.429   0.457   0.472   0.480   0.497   0.510
  0.516   0.528   0.536   0.566   0.568   0.574   0.587   0.608
  0.612   0.633   0.638   0.646   0.664   0.679   0.727   0.744
  0.769   0.776   0.791   0.801   0.808   0.816   0.836   0.836
  0.852   0.854   0.862   0.870   0.892   0.916   0.930   0.936
  0.949   0.972   1.019   1.050   1.056   1.086   1.115   1.157
  1.169   1.177   1.181   1.190   1.224   1.287   1.300   1.311
  1.348   1.394   1.518   1.522   1.606   1.646   1.664   1.703
  1.709   1.746   1.752   1.786   1.797   1.842   1.848   1.891
  1.929   1.953   1.987   2.011   2.021   2.034   2.081   2.093
  2.165   2.201   2.207   2.259   2.265   2.301   2.301   2.326
  2.342   2.343   2.356   2.413   2.420   2.440   2.474   2.531
  2.533   2.580   2.654   2.686   2.705   2.761   2.996   2.999
  3.109   3.112   3.234   3.260   3.553   3.571   3.794   3.797
  4.101   4.130   4.138   4.154   4.259   4.352   4.486   4.534
 --------------------------------------------------------------
 
          Ground-State Mulliken Net Atomic Charges

     Atom                 Charge (a.u.)    Spin (a.u.)
  --------------------------------------------------------
      1 S                     0.139921      -0.049551
      2 C                     0.075141       0.267602
      3 H                     0.247823      -0.011412
      4 C                    -0.377682       0.018513
      5 H                     0.174348      -0.001636
      6 C                     0.338783       0.031678
      7 H                     0.179078      -0.002726
      8 C                    -0.276524       0.247617
      9 C                    -0.276953       0.247547
     10 C                     0.337923       0.031527
     11 H                     0.179016      -0.002702
     12 C                    -0.378137       0.018661
     13 H                     0.174350      -0.001645
     14 C                     0.075238       0.267340
     15 H                     0.247746      -0.011404
     16 S                     0.139929      -0.049411
  --------------------------------------------------------
  Sum of atomic charges =     1.000000
  Sum of spin   charges =     1.000000

 -----------------------------------------------------------------
                    Cartesian Multipole Moments
 -----------------------------------------------------------------
    Charge (ESU x 10^10)
                 4.8032
    Dipole Moment (Debye)
         X      -3.2355      Y       0.3276      Z     -10.2385
       Tot      10.7425
    Quadrupole Moments (Debye-Ang)
        XX     -31.4021     XY       0.4759     YY     -64.9623
        XZ      25.5679     YZ      -0.4121     ZZ     -32.0660
    Octopole Moments (Debye-Ang^2)
       XXX      90.7826    XXY       2.2663    XYY      32.4401
       YYY      29.4570    XXZ      17.9444    XYZ      -2.6738
       YYZ     116.3914    XZZ     -39.3979    YZZ       8.1643
       ZZZ     288.8349
    Hexadecapole Moments (Debye-Ang^3)
      XXXX   -1280.1863   XXXY     -31.1099   XXYY    -298.1356
      XYYY     -66.7724   YYYY    -308.3607   XXXZ    -306.4263
      XXYZ      -0.3297   XYYZ    -164.5152   YYYZ     -90.0856
      XXZZ    -236.7574   XYZZ      -4.8263   YYZZ    -393.4052
      XZZZ    -341.0595   YZZZ     -68.7119   ZZZZ   -2020.3517
 -----------------------------------------------------------------
 Calculating analytic gradient of the SCF energy
 Gradient of SCF Energy
            1           2           3           4           5           6
    1   0.0037983   0.0153158  -0.0007266  -0.0002172   0.0003067  -0.0270440
    2  -0.0109938  -0.0003687   0.0036142  -0.0034538  -0.0015126   0.0114155
    3  -0.0104009  -0.0095326  -0.0013468   0.0279089   0.0006638   0.0022745
            7           8           9          10          11          12
    1  -0.0001865   0.0073741  -0.0003429   0.0244665   0.0005325  -0.0142224
    2   0.0007727  -0.0001383   0.0132004  -0.0161412  -0.0000091  -0.0240328
    3  -0.0001031  -0.0110139  -0.0011119   0.0021346  -0.0006261  -0.0025431
           13          14          15          16
    1  -0.0012699  -0.0072807   0.0029567  -0.0034603
    2  -0.0003534   0.0158377   0.0005903   0.0115728
    3   0.0010266  -0.0047683  -0.0025337   0.0099718
 Max gradient component =       2.791E-02
 RMS gradient           =       1.004E-02
 Gradient time:  CPU 1.91 s  wall 1.91 s
 Geometry Optimization Parameters
   NAtoms,    NIC,     NZ,  NCons,   NDum,   NFix, NCnnct, MaxDiis
       16     111       0       1       0       0       0       0


** CONSTRAINED OPTIMIZATION IN DELOCALIZED INTERNAL COORDINATES **
   Searching for a Minimum

   Optimization Cycle:   1

                       Coordinates (Angstroms)
     ATOM                X               Y               Z
      1  S         0.0023888700    0.0607727500    0.0018326900
      2  C         1.7370761900    0.0331584900    0.0032322900
      3  H         2.2761273700    0.0528903200    0.9404255700
      4  C         2.2416920400   -0.0154620100   -1.2696579800
      5  H         3.3028578000   -0.0400536500   -1.4897249600
      6  C         1.2247922200   -0.0161296800   -2.2681146400
      7  H         1.4267479000   -0.0265098700   -3.3333450100
      8  C        -0.0539377100    0.0288038800   -1.7517096600
      9  C        -1.3245081500    0.0488998800   -2.4563634200
     10  C        -2.0547286600    1.1328225600   -2.8990010300
     11  H        -1.7221359400    2.1567946100   -2.7698446000
     12  C        -3.2612676600    0.7716500000   -3.5658614100
     13  H        -3.9557789300    1.4895838900   -3.9869548200
     14  C        -3.4471374200   -0.5841827000   -3.6314687200
     15  H        -4.2639188100   -1.1301028300   -4.0834871100
     16  S        -2.1531854500   -1.4447096000   -2.8602897200
   Point Group: c1    Number of degrees of freedom:    42


   Energy is  -1104.530566122

              Constraints and their Current Values
                                        Value     Constraint
   Dihedral:        6   8   9  10      -90.000      -90.000

 Attempting to Generate Delocalized Internal Coordinates

 41 Hessian modes will be used to form the next step
  Hessian Eigenvalues:
     0.045000    0.045000    0.045000    0.045000    0.045000    0.045000
     0.045002    0.045002    0.045003    0.045004    0.045011    0.045012
     0.159943    0.159949    0.159991    0.159992    0.160000    0.160000
     0.221282    0.221282    0.237835    0.237839    0.250000    0.250000
     0.294264    0.294663    0.312518    0.312618    0.354736    0.354850
     0.355125    0.355132    0.358226    0.358329    0.378510    0.404854
     0.404909    0.463547    0.463616    0.497922    0.497945

 Minimum Search - Taking Simple RFO Step
 Searching for Lamda that Minimizes Along All modes
 Value Taken    Lamda =  -0.01239150
 Calculated Step too Large.  Step scaled by  0.887881
 Step Taken.  Stepsize is  0.300000

                             Maximum     Tolerance    Cnvgd?
         Gradient           0.027715      0.000300      NO
         Displacement       0.183718      0.001200      NO
         Energy change     *********      0.000001      NO


 New Cartesian Coordinates Obtained by Inverse Iteration

 Displacement from previous Coordinates is:  0.494129
 ----------------------------------------------------------------
             Standard Nuclear Orientation (Angstroms)
    I     Atom           X                Y                Z
 ----------------------------------------------------------------
    1      S      -0.0126225949     0.1308557321     0.0371089002
    2      C       1.7183333108     0.0736230552    -0.0149004700
    3      H       2.2756462621     0.1098458782     0.9132156713
    4      C       2.2239795858    -0.0043134491    -1.3056911331
    5      H       3.2821964248    -0.0219881405    -1.5389809727
    6      C       1.2072263047    -0.0678502217    -2.2746694300
    7      H       1.3879711516    -0.1178583973    -3.3425091930
    8      C      -0.0727890854    -0.0170680134    -1.7169417953
    9      C      -1.3492118956     0.0118070057    -2.4155219645
   10      C      -2.0639595445     1.1327914510    -2.8452547871
   11      H      -1.7335866295     2.1507003610    -2.6711756975
   12      C      -3.2263073284     0.7935932750    -3.5598586219
   13      H      -3.9093514093     1.5213139013    -3.9823039544
   14      C      -3.4051832947    -0.5800281167    -3.6542469811
   15      H      -4.2235874122    -1.1098755127    -4.1264764910
   16      S      -2.1236701853    -1.4873227679    -2.9221256100
 ----------------------------------------------------------------
 Nuclear Repulsion Energy =   627.2893704618 hartrees
 There are       43 alpha and       42 beta electrons
 Applying Cartesian multipole field
    Component          Value
    ---------          -----
     (2,0,0)        1.00000E-11
     (0,2,0)        2.00000E-11
     (0,0,2)       -3.00000E-11
 Nucleus-field energy     =    -0.0000000358 hartrees
 Requested basis set is 6-31++G(d,p)
 There are 76 shells and 234 basis functions
 A cutoff of  1.0D-12 yielded   2530 shell pairs
 There are     24904 function pairs

 Q-Chem warning in module /project/projectdirs/jcesr/qchem/qc44/cnl_qc441/compile/cori/qc_src/libqints/qchem/aobasis.C, line 68:

 Using reconstructed effective core potential

 Smallest overlap matrix eigenvalue = 9.85E-07
 Linear dependence detected in AO basis
 Number of orthogonalized atomic orbitals = 233
 Maximum deviation from orthogonality = 5.384E-11
 No. of orbitals has changed due to linear dependencies.  Generating new SCF guess.
 Guess from superposition of atomic densities
 Warning:  Energy on first SCF cycle will be non-variational
 An unrestricted hybrid HF-DFT SCF calculation will be
 performed using Pulay DIIS extrapolation
 Exchange:     0.2000 Hartree-Fock + 0.0800 Slater + 0.7200 B88
 Correlation:  0.1900 VWN1RPA + 0.8100 LYP
 Using SG-1 standard quadrature grid
 SCF converges when DIIS error is below 1.0E-08
 Geometry optimization detected.  Setting ReadMinima to 0
 Setting SaveMinima to 0
 Inaccurate integrated density:
   Number of electrons =    85
   Numerical integral  =    86.000085812016
   Relative error      =     1.1765715435 %
 ---------------------------------------
  Cycle       Energy         DIIS Error
 ---------------------------------------
    1   -1107.1099058175      4.37E-02
    2   -1104.4030550727      4.13E-03
    3   -1103.9851155815      8.03E-03
    4   -1104.4985056241      2.05E-03
    5   -1104.5241625167      1.16E-03
    6   -1104.5337464673      6.33E-04
    7   -1104.5372737964      2.02E-04
    8   -1104.5376716233      5.37E-05
    9   -1104.5377306212      2.99E-05
   10   -1104.5377734571      1.70E-05
   11   -1104.5377957685      9.42E-06
   12   -1104.5378031258      6.39E-06
   13   -1104.5378063099      2.12E-06
   14   -1104.5378068987      7.68E-07
   15   -1104.5378070082      4.20E-07
   16   -1104.5378070410      1.08E-07
   17   -1104.5378070434      8.21E-08
   18   -1104.5378070435      4.96E-08
   19   -1104.5378070427      3.41E-08
   20   -1104.5378070434      2.48E-08
   21   -1104.5378070428      7.35E-09 Convergence criterion met
 ---------------------------------------
 <S^2> = 0.7593
 SCF time:  CPU 14.00 s  wall 13.94 s
 SCF   energy in the final basis set = -1104.5378070428
 Total energy in the final basis set = -1104.5378070428
 
 --------------------------------------------------------------
 
                    Orbital Energies (a.u.)
 --------------------------------------------------------------
 
 Alpha MOs
 -- Occupied --
-89.097 -89.097 -10.433 -10.433 -10.416 -10.416 -10.388 -10.388
-10.379 -10.379  -8.156  -8.156  -6.120  -6.120  -6.116  -6.116
 -6.113  -6.113  -1.083  -1.059  -0.954  -0.923  -0.923  -0.883
 -0.782  -0.744  -0.740  -0.711  -0.697  -0.648  -0.593  -0.591
 -0.587  -0.580  -0.573  -0.554  -0.551  -0.529  -0.527  -0.440
 -0.432  -0.431  -0.425
 -- Virtual --
 -0.220  -0.216  -0.158  -0.156  -0.135  -0.124  -0.124  -0.107
 -0.099  -0.091  -0.091  -0.088  -0.078  -0.077  -0.061  -0.060
 -0.042  -0.042  -0.040  -0.026  -0.016  -0.016  -0.009  -0.007
 -0.005  -0.001   0.002   0.007   0.010   0.014   0.021   0.023
  0.026   0.027   0.036   0.037   0.040   0.050   0.052   0.059
  0.063   0.069   0.071   0.076   0.082   0.088   0.095   0.102
  0.115   0.117   0.122   0.122   0.139   0.150   0.151   0.157
  0.172   0.177   0.192   0.219   0.221   0.228   0.240   0.249
  0.307   0.318   0.329   0.363   0.366   0.387   0.420   0.422
  0.428   0.457   0.459   0.475   0.493   0.495   0.514   0.530
  0.541   0.562   0.563   0.569   0.590   0.600   0.612   0.627
  0.634   0.640   0.659   0.674   0.722   0.730   0.759   0.766
  0.783   0.798   0.802   0.808   0.827   0.835   0.836   0.843
  0.846   0.857   0.893   0.908   0.926   0.928   0.947   0.970
  0.994   1.021   1.060   1.078   1.111   1.149   1.167   1.171
  1.176   1.185   1.223   1.276   1.287   1.309   1.334   1.383
  1.504   1.509   1.595   1.623   1.660   1.717   1.720   1.735
  1.741   1.786   1.800   1.838   1.849   1.888   1.912   1.946
  1.967   2.003   2.013   2.014   2.061   2.091   2.154   2.199
  2.206   2.251   2.256   2.290   2.294   2.314   2.333   2.337
  2.352   2.399   2.407   2.424   2.460   2.523   2.530   2.577
  2.649   2.677   2.697   2.742   2.990   2.992   3.105   3.109
  3.229   3.251   3.551   3.569   3.791   3.793   4.090   4.095
  4.130   4.144   4.254   4.336   4.487   4.532
 
 Beta MOs
 -- Occupied --
-89.097 -89.097 -10.430 -10.430 -10.412 -10.412 -10.388 -10.388
-10.379 -10.379  -8.156  -8.156  -6.120  -6.120  -6.116  -6.116
 -6.113  -6.113  -1.076  -1.053  -0.944  -0.922  -0.920  -0.873
 -0.777  -0.739  -0.735  -0.708  -0.695  -0.645  -0.586  -0.585
 -0.582  -0.577  -0.570  -0.542  -0.541  -0.528  -0.526  -0.437
 -0.430  -0.402
 -- Virtual --
 -0.359  -0.204  -0.199  -0.154  -0.153  -0.128  -0.122  -0.114
 -0.106  -0.098  -0.091  -0.090  -0.087  -0.076  -0.076  -0.061
 -0.059  -0.041  -0.041  -0.040  -0.025  -0.015  -0.015  -0.008
 -0.007  -0.004  -0.000   0.004   0.008   0.010   0.015   0.023
  0.025   0.027   0.028   0.037   0.040   0.042   0.051   0.053
  0.060   0.064   0.070   0.072   0.077   0.084   0.090   0.095
  0.103   0.116   0.118   0.124   0.125   0.141   0.151   0.152
  0.158   0.174   0.179   0.194   0.221   0.222   0.230   0.242
  0.253   0.309   0.320   0.331   0.364   0.366   0.388   0.422
  0.423   0.429   0.459   0.463   0.479   0.500   0.504   0.521
  0.534   0.543   0.565   0.565   0.572   0.592   0.605   0.618
  0.630   0.637   0.643   0.664   0.679   0.723   0.731   0.763
  0.771   0.786   0.802   0.803   0.811   0.828   0.836   0.837
  0.846   0.848   0.859   0.895   0.910   0.928   0.930   0.950
  0.974   0.998   1.025   1.065   1.080   1.114   1.152   1.174
  1.179   1.181   1.189   1.227   1.281   1.292   1.314   1.341
  1.389   1.516   1.522   1.602   1.632   1.668   1.719   1.723
  1.740   1.744   1.790   1.809   1.842   1.853   1.891   1.920
  1.953   1.977   2.013   2.019   2.024   2.067   2.099   2.159
  2.203   2.209   2.254   2.261   2.296   2.296   2.318   2.337
  2.341   2.355   2.402   2.411   2.428   2.465   2.527   2.534
  2.583   2.652   2.679   2.700   2.746   2.991   2.993   3.106
  3.109   3.230   3.253   3.552   3.571   3.792   3.794   4.098
  4.102   4.133   4.147   4.260   4.343   4.491   4.536
 --------------------------------------------------------------
 
          Ground-State Mulliken Net Atomic Charges

     Atom                 Charge (a.u.)    Spin (a.u.)
  --------------------------------------------------------
      1 S                     0.175359      -0.052168
      2 C                     0.087272       0.277334
      3 H                     0.247915      -0.011877
      4 C                    -0.352894       0.008006
      5 H                     0.175339      -0.000521
      6 C                     0.360565       0.046690
      7 H                     0.182038      -0.002949
      8 C                    -0.375438       0.235612
      9 C                    -0.375053       0.235343
     10 C                     0.359994       0.046573
     11 H                     0.181991      -0.002919
     12 C                    -0.353291       0.008233
     13 H                     0.175375      -0.000530
     14 C                     0.087355       0.277048
     15 H                     0.247826      -0.011875
     16 S                     0.175647      -0.051999
  --------------------------------------------------------
  Sum of atomic charges =     1.000000
  Sum of spin   charges =     1.000000

 -----------------------------------------------------------------
                    Cartesian Multipole Moments
 -----------------------------------------------------------------
    Charge (ESU x 10^10)
                 4.8032
    Dipole Moment (Debye)
         X      -3.2418      Y       0.3168      Z     -10.2287
       Tot      10.7348
    Quadrupole Moments (Debye-Ang)
        XX     -32.6553     XY       0.4239     YY     -64.5212
        XZ      24.9272     YZ       0.3297     ZZ     -31.9585
    Octopole Moments (Debye-Ang^2)
       XXX      95.6806    XXY       3.6177    XYY      31.7050
       YYY      28.7158    XXZ      20.9219    XYZ      -2.3497
       YYZ     115.2502    XZZ     -38.1095    YZZ       5.6272
       ZZZ     287.9716
    Hexadecapole Moments (Debye-Ang^3)
      XXXX   -1282.7103   XXXY     -36.7770   XXYY    -294.8558
      XYYY     -68.2774   YYYY    -316.7789   XXXZ    -324.0929
      XXYZ      -6.9164   XYYZ    -161.1554   YYYZ    -100.3331
      XXZZ    -244.0187   XYZZ      -4.7990   YYZZ    -393.2852
      XZZZ    -340.6081   YZZZ     -71.2846   ZZZZ   -2029.0837
 -----------------------------------------------------------------
 Calculating analytic gradient of the SCF energy
 Gradient of SCF Energy
            1           2           3           4           5           6
    1  -0.0053602   0.0036572  -0.0008237   0.0013042  -0.0000132  -0.0068017
    2  -0.0059358  -0.0030299   0.0026737  -0.0007143  -0.0011422   0.0104544
    3   0.0029035  -0.0048380  -0.0000808   0.0055123  -0.0010181  -0.0013349
            7           8           9          10          11          12
    1   0.0012212   0.0087716  -0.0082065   0.0108061  -0.0003318  -0.0038108
    2   0.0010481  -0.0050145   0.0062818  -0.0028705   0.0006604  -0.0040895
    3  -0.0001305  -0.0017560   0.0006068  -0.0056076  -0.0014741  -0.0011199
           13          14          15          16
    1  -0.0000887  -0.0021215   0.0019859  -0.0001882
    2   0.0009447   0.0061880  -0.0005111  -0.0049434
    3   0.0011898   0.0019481  -0.0019095   0.0071089
 Max gradient component =       1.081E-02
 RMS gradient           =       4.225E-03
 Gradient time:  CPU 1.96 s  wall 1.92 s
 Geometry Optimization Parameters
   NAtoms,    NIC,     NZ,  NCons,   NDum,   NFix, NCnnct, MaxDiis
       16     111       0       1       0       0       0       0

 Cartesian Hessian Update
 Hessian Updated using BFGS Update


** CONSTRAINED OPTIMIZATION IN DELOCALIZED INTERNAL COORDINATES **
   Searching for a Minimum

   Optimization Cycle:   2

                       Coordinates (Angstroms)
     ATOM                X               Y               Z
      1  S        -0.0126225949    0.1308557321    0.0371089002
      2  C         1.7183333108    0.0736230552   -0.0149004700
      3  H         2.2756462621    0.1098458782    0.9132156713
      4  C         2.2239795858   -0.0043134491   -1.3056911331
      5  H         3.2821964248   -0.0219881405   -1.5389809727
      6  C         1.2072263047   -0.0678502217   -2.2746694300
      7  H         1.3879711516   -0.1178583973   -3.3425091930
      8  C        -0.0727890854   -0.0170680134   -1.7169417953
      9  C        -1.3492118956    0.0118070057   -2.4155219645
     10  C        -2.0639595445    1.1327914510   -2.8452547871
     11  H        -1.7335866295    2.1507003610   -2.6711756975
     12  C        -3.2263073284    0.7935932750   -3.5598586219
     13  H        -3.9093514093    1.5213139013   -3.9823039544
     14  C        -3.4051832947   -0.5800281167   -3.6542469811
     15  H        -4.2235874122   -1.1098755127   -4.1264764910
     16  S        -2.1236701853   -1.4873227679   -2.9221256100
   Point Group: c1    Number of degrees of freedom:    42


   Energy is  -1104.537807043

              Constraints and their Current Values
                                        Value     Constraint
   Dihedral:        6   8   9  10      -90.000      -90.000
 Hessian Updated using BFGS Update

 39 Hessian modes will be used to form the next step
  Hessian Eigenvalues:
     0.027495    0.045000    0.045000    0.045000    0.045000    0.045002
     0.045004    0.045011    0.045012    0.046451    0.159862    0.159947
     0.159976    0.159992    0.160000    0.160568    0.221282    0.222294
     0.237837    0.249045    0.249999    0.278890    0.294459    0.299155
     0.312567    0.317978    0.354726    0.354843    0.355111    0.355129
     0.358230    0.358338    0.378716    0.404881    0.422579    0.461339
     0.463584    0.497933    0.536378

 Minimum Search - Taking Simple RFO Step
 Searching for Lamda that Minimizes Along All modes
 Value Taken    Lamda =  -0.00604993
 Calculated Step too Large.  Step scaled by  0.728153
 Step Taken.  Stepsize is  0.300000

                             Maximum     Tolerance    Cnvgd?
         Gradient           0.008417      0.000300      NO
         Displacement       0.184817      0.001200      NO
         Energy change     -0.007241      0.000001      NO


 New Cartesian Coordinates Obtained by Inverse Iteration

 Displacement from previous Coordinates is:  0.598125
 ----------------------------------------------------------------
             Standard Nuclear Orientation (Angstroms)
    I     Atom           X                Y                Z
 ----------------------------------------------------------------
    1      S       0.0074687473     0.2017876871     0.0557785652
    2      C       1.7314828674     0.1368578606    -0.0259427940
    3      H       2.3118206192     0.2037566341     0.8874031216
    4      C       2.2134368704     0.0017927319    -1.3284462544
    5      H       3.2678203918    -0.0106493822    -1.5771410900
    6      C       1.1829989649    -0.1335584725    -2.2658433688
    7      H       1.3352913697    -0.2368288601    -3.3338584923
    8      C      -0.0943297369    -0.0729235710    -1.6816086389
    9      C      -1.3767094460    -0.0269943423    -2.3652384742
   10      C      -2.0819145646     1.1166240343    -2.7793738607
   11      H      -1.7562724269     2.1235779832    -2.5456698565
   12      C      -3.2051673676     0.8079178174    -3.5551920314
   13      H      -3.8759741832     1.5470966142    -3.9763421829
   14      C      -3.3790671617    -0.5674631014    -3.7127721474
   15      H      -4.1932817703    -1.0745861223    -4.2183676002
   16      S      -2.1125195136    -1.4981814707    -2.9977174252
 ----------------------------------------------------------------
 Nuclear Repulsion Energy =   626.6158947901 hartrees
 There are       43 alpha and       42 beta electrons
 Applying Cartesian multipole field
    Component          Value
    ---------          -----
     (2,0,0)        1.00000E-11
     (0,2,0)        2.00000E-11
     (0,0,2)       -3.00000E-11
 Nucleus-field energy     =    -0.0000000364 hartrees
 Requested basis set is 6-31++G(d,p)
 There are 76 shells and 234 basis functions
 A cutoff of  1.0D-12 yielded   2535 shell pairs
 There are     25001 function pairs

 Q-Chem warning in module /project/projectdirs/jcesr/qchem/qc44/cnl_qc441/compile/cori/qc_src/libqints/qchem/aobasis.C, line 68:

 Using reconstructed effective core potential

 Smallest overlap matrix eigenvalue = 1.02E-06
 No. of orbitals has changed due to linear dependencies.  Generating new SCF guess.
 Guess from superposition of atomic densities
 Warning:  Energy on first SCF cycle will be non-variational
 An unrestricted hybrid HF-DFT SCF calculation will be
 performed using Pulay DIIS extrapolation
 Exchange:     0.2000 Hartree-Fock + 0.0800 Slater + 0.7200 B88
 Correlation:  0.1900 VWN1RPA + 0.8100 LYP
 Using SG-1 standard quadrature grid
 SCF converges when DIIS error is below 1.0E-08
 Geometry optimization detected.  Setting ReadMinima to 0
 Setting SaveMinima to 0
 Inaccurate integrated density:
   Number of electrons =    85
   Numerical integral  =    85.999984106751
   Relative error      =     1.1764518903 %
 ---------------------------------------
  Cycle       Energy         DIIS Error
 ---------------------------------------
    1   -1107.0966692251      4.35E-02
    2   -1104.4097174925      4.07E-03
    3   -1104.0423151333      7.67E-03
    4   -1104.5190824797      1.58E-03
    5   -1104.5337513425      8.86E-04
    6   -1104.5395311237      4.33E-04
    7   -1104.5410610848      1.74E-04
    8   -1104.5413599957      3.90E-05
    9   -1104.5413956126      1.83E-05
   10   -1104.5414184554      9.17E-06
   11   -1104.5414312239      4.83E-06
   12   -1104.5414341685      3.63E-06
   13   -1104.5414355298      1.19E-06
   14   -1104.5414358180      4.32E-07
   15   -1104.5414358585      2.11E-07
   16   -1104.5414358662      4.71E-08
   17   -1104.5414358657      3.95E-08
   18   -1104.5414358655      1.61E-08
   19   -1104.5414358665      1.10E-08
   20   -1104.5414358660      6.28E-09 Convergence criterion met
 ---------------------------------------
 <S^2> = 0.7604
 SCF time:  CPU 13.29 s  wall 12.87 s
 SCF   energy in the final basis set = -1104.5414358660
 Total energy in the final basis set = -1104.5414358660
 
 --------------------------------------------------------------
 
                    Orbital Energies (a.u.)
 --------------------------------------------------------------
 
 Alpha MOs
 -- Occupied --
-89.098 -89.098 -10.433 -10.433 -10.416 -10.416 -10.390 -10.390
-10.379 -10.379  -8.156  -8.156  -6.121  -6.121  -6.117  -6.117
 -6.113  -6.113  -1.082  -1.059  -0.953  -0.925  -0.923  -0.881
 -0.782  -0.745  -0.738  -0.711  -0.697  -0.648  -0.594  -0.590
 -0.585  -0.579  -0.575  -0.555  -0.550  -0.530  -0.527  -0.442
 -0.433  -0.432  -0.419
 -- Virtual --
 -0.223  -0.216  -0.158  -0.156  -0.135  -0.124  -0.123  -0.107
 -0.100  -0.092  -0.091  -0.087  -0.078  -0.077  -0.062  -0.061
 -0.041  -0.041  -0.039  -0.029  -0.016  -0.013  -0.009  -0.008
 -0.005  -0.001   0.001   0.008   0.009   0.014   0.020   0.023
  0.023   0.027   0.035   0.038   0.040   0.049   0.049   0.061
  0.063   0.070   0.072   0.076   0.079   0.088   0.095   0.102
  0.113   0.114   0.118   0.121   0.144   0.148   0.152   0.155
  0.171   0.175   0.185   0.193   0.217   0.222   0.230   0.238
  0.273   0.303   0.314   0.333   0.364   0.369   0.380   0.420
  0.421   0.439   0.450   0.464   0.481   0.491   0.496   0.513
  0.541   0.541   0.561   0.564   0.566   0.593   0.595   0.615
  0.626   0.633   0.636   0.658   0.673   0.717   0.734   0.756
  0.772   0.786   0.799   0.808   0.813   0.834   0.838   0.838
  0.844   0.852   0.862   0.902   0.907   0.924   0.931   0.943
  0.967   1.022   1.034   1.060   1.080   1.107   1.147   1.172
  1.172   1.176   1.181   1.231   1.263   1.293   1.301   1.343
  1.381   1.502   1.512   1.577   1.620   1.663   1.724   1.727
  1.727   1.742   1.784   1.816   1.835   1.848   1.889   1.908
  1.945   1.960   2.005   2.006   2.012   2.054   2.091   2.159
  2.201   2.205   2.245   2.259   2.292   2.296   2.318   2.335
  2.339   2.352   2.398   2.405   2.436   2.456   2.519   2.530
  2.575   2.646   2.673   2.693   2.740   2.988   2.991   3.108
  3.108   3.227   3.247   3.549   3.570   3.792   3.797   4.091
  4.107   4.131   4.148   4.253   4.339   4.487   4.530
 
 Beta MOs
 -- Occupied --
-89.098 -89.098 -10.430 -10.430 -10.413 -10.413 -10.389 -10.389
-10.379 -10.379  -8.156  -8.156  -6.121  -6.121  -6.117  -6.117
 -6.114  -6.114  -1.076  -1.053  -0.944  -0.923  -0.921  -0.871
 -0.777  -0.740  -0.733  -0.708  -0.695  -0.645  -0.587  -0.586
 -0.581  -0.577  -0.572  -0.542  -0.541  -0.528  -0.525  -0.438
 -0.431  -0.406
 -- Virtual --
 -0.353  -0.206  -0.198  -0.155  -0.152  -0.128  -0.122  -0.114
 -0.107  -0.099  -0.091  -0.090  -0.087  -0.076  -0.076  -0.062
 -0.060  -0.040  -0.040  -0.039  -0.028  -0.016  -0.013  -0.008
 -0.007  -0.005   0.000   0.002   0.009   0.011   0.016   0.022
  0.023   0.024   0.028   0.036   0.040   0.042   0.050   0.050
  0.062   0.064   0.071   0.073   0.077   0.080   0.089   0.096
  0.102   0.115   0.115   0.120   0.124   0.145   0.149   0.153
  0.157   0.173   0.177   0.187   0.195   0.219   0.224   0.232
  0.241   0.276   0.306   0.315   0.336   0.366   0.369   0.380
  0.422   0.423   0.440   0.453   0.466   0.486   0.501   0.503
  0.520   0.542   0.543   0.563   0.566   0.569   0.595   0.600
  0.621   0.630   0.637   0.638   0.664   0.678   0.719   0.736
  0.761   0.777   0.787   0.801   0.811   0.815   0.836   0.839
  0.841   0.847   0.854   0.864   0.904   0.909   0.926   0.933
  0.946   0.971   1.026   1.038   1.065   1.082   1.110   1.150
  1.179   1.180   1.182   1.185   1.235   1.269   1.299   1.305
  1.352   1.386   1.514   1.525   1.587   1.627   1.670   1.726
  1.729   1.734   1.745   1.788   1.824   1.839   1.853   1.892
  1.916   1.953   1.970   2.011   2.015   2.023   2.060   2.099
  2.164   2.203   2.209   2.248   2.265   2.294   2.300   2.323
  2.339   2.343   2.355   2.402   2.409   2.441   2.459   2.523
  2.534   2.580   2.649   2.675   2.695   2.743   2.989   2.993
  3.108   3.109   3.228   3.248   3.551   3.571   3.793   3.797
  4.098   4.114   4.134   4.150   4.259   4.346   4.490   4.534
 --------------------------------------------------------------
 
          Ground-State Mulliken Net Atomic Charges

     Atom                 Charge (a.u.)    Spin (a.u.)
  --------------------------------------------------------
      1 S                     0.183458      -0.052700
      2 C                     0.042426       0.283759
      3 H                     0.245339      -0.013104
      4 C                    -0.322073      -0.003856
      5 H                     0.173858       0.000494
      6 C                     0.298409       0.066344
      7 H                     0.182815      -0.003830
      8 C                    -0.301372       0.222982
      9 C                    -0.305517       0.222817
     10 C                     0.297144       0.066324
     11 H                     0.182713      -0.003781
     12 C                    -0.322581      -0.003543
     13 H                     0.173878       0.000477
     14 C                     0.043037       0.283265
     15 H                     0.245305      -0.013100
     16 S                     0.183162      -0.052548
  --------------------------------------------------------
  Sum of atomic charges =     1.000000
  Sum of spin   charges =     1.000000

 -----------------------------------------------------------------
                    Cartesian Multipole Moments
 -----------------------------------------------------------------
    Charge (ESU x 10^10)
                 4.8032
    Dipole Moment (Debye)
         X      -3.2134      Y       0.3710      Z     -10.2777
       Tot      10.7747
    Quadrupole Moments (Debye-Ang)
        XX     -33.1356     XY       0.3828     YY     -64.4962
        XZ      25.1058     YZ       1.1321     ZZ     -31.4726
    Octopole Moments (Debye-Ang^2)
       XXX      97.8076    XXY       4.6447    XYY      31.9668
       YYY      27.6895    XXZ      21.8599    XYZ      -2.1548
       YYZ     115.8495    XZZ     -40.6250    YZZ       2.1012
       ZZZ     284.8260
    Hexadecapole Moments (Debye-Ang^3)
      XXXX   -1286.2753   XXXY     -39.8920   XXYY    -295.2876
      XYYY     -70.1450   YYYY    -321.9112   XXXZ    -332.3318
      XXYZ     -10.8611   XYYZ    -163.5456   YYYZ    -111.6636
      XXZZ    -240.8403   XYZZ      -1.5164   YYZZ    -397.5094
      XZZZ    -327.9510   YZZZ     -68.6755   ZZZZ   -2028.6693
 -----------------------------------------------------------------
 Calculating analytic gradient of the SCF energy
 Gradient of SCF Energy
            1           2           3           4           5           6
    1  -0.0033598   0.0001501  -0.0002403   0.0006972  -0.0001630   0.0000081
    2  -0.0024885  -0.0036009   0.0015256   0.0005814  -0.0006861   0.0106813
    3   0.0033690   0.0001431   0.0004169  -0.0018320  -0.0005351  -0.0015116
            7           8           9          10          11          12
    1   0.0006726   0.0075234  -0.0103925   0.0060226   0.0000059   0.0005817
    2   0.0010993  -0.0099497   0.0045963   0.0006591   0.0002047   0.0018280
    3   0.0000634  -0.0002577   0.0052579  -0.0089092  -0.0012812  -0.0004922
           13          14          15          16
    1   0.0000165  -0.0018700   0.0007285  -0.0003811
    2   0.0004179   0.0002487  -0.0006000  -0.0045170
    3   0.0007786   0.0030669  -0.0012755   0.0029986
 Max gradient component =       1.068E-02
 RMS gradient           =       3.672E-03
 Gradient time:  CPU 1.92 s  wall 1.90 s
 Geometry Optimization Parameters
   NAtoms,    NIC,     NZ,  NCons,   NDum,   NFix, NCnnct, MaxDiis
       16     111       0       1       0       0       0       0

 Cartesian Hessian Update
 Hessian Updated using BFGS Update


** CONSTRAINED OPTIMIZATION IN DELOCALIZED INTERNAL COORDINATES **
   Searching for a Minimum

   Optimization Cycle:   3

                       Coordinates (Angstroms)
     ATOM                X               Y               Z
      1  S         0.0074687473    0.2017876871    0.0557785652
      2  C         1.7314828674    0.1368578606   -0.0259427940
      3  H         2.3118206192    0.2037566341    0.8874031216
      4  C         2.2134368704    0.0017927319   -1.3284462544
      5  H         3.2678203918   -0.0106493822   -1.5771410900
      6  C         1.1829989649   -0.1335584725   -2.2658433688
      7  H         1.3352913697   -0.2368288601   -3.3338584923
      8  C        -0.0943297369   -0.0729235710   -1.6816086389
      9  C        -1.3767094460   -0.0269943423   -2.3652384742
     10  C        -2.0819145646    1.1166240343   -2.7793738607
     11  H        -1.7562724269    2.1235779832   -2.5456698565
     12  C        -3.2051673676    0.8079178174   -3.5551920314
     13  H        -3.8759741832    1.5470966142   -3.9763421829
     14  C        -3.3790671617   -0.5674631014   -3.7127721474
     15  H        -4.1932817703   -1.0745861223   -4.2183676002
     16  S        -2.1125195136   -1.4981814707   -2.9977174252
   Point Group: c1    Number of degrees of freedom:    42


   Energy is  -1104.541435866

              Constraints and their Current Values
                                        Value     Constraint
   Dihedral:        6   8   9  10      -90.000      -90.000
 Hessian Updated using BFGS Update

 40 Hessian modes will be used to form the next step
  Hessian Eigenvalues:
     0.013455    0.045000    0.045000    0.045000    0.045002    0.045002
     0.045003    0.045011    0.045012    0.045027    0.051505    0.159757
     0.159947    0.159972    0.159992    0.160000    0.160642    0.221283
     0.222476    0.237837    0.249999    0.252413    0.278001    0.294458
     0.298994    0.312563    0.315476    0.354771    0.354923    0.355128
     0.355186    0.358270    0.358565    0.381851    0.404881    0.421636
     0.461603    0.463584    0.497935    0.590940

 Minimum Search - Taking Simple RFO Step
 Searching for Lamda that Minimizes Along All modes
 Value Taken    Lamda =  -0.00539366
 Calculated Step too Large.  Step scaled by  0.571017
 Step Taken.  Stepsize is  0.300000

                             Maximum     Tolerance    Cnvgd?
         Gradient           0.007762      0.000300      NO
         Displacement       0.223778      0.001200      NO
         Energy change     -0.003629      0.000001      NO


 New Cartesian Coordinates Obtained by Inverse Iteration

 Displacement from previous Coordinates is:  0.691712
 ----------------------------------------------------------------
             Standard Nuclear Orientation (Angstroms)
    I     Atom           X                Y                Z
 ----------------------------------------------------------------
    1      S       0.0230755660     0.2632456307     0.0650036723
    2      C       1.7409891877     0.2139618303    -0.0502748330
    3      H       2.3440096612     0.3266751152     0.8436323188
    4      C       2.1964992997     0.0014677539    -1.3540987986
    5      H       3.2460953133    -0.0065694423    -1.6222612922
    6      C       1.1498509840    -0.2076342057    -2.2539839062
    7      H       1.2743548967    -0.3713427567    -3.3181150024
    8      C      -0.1210954706    -0.1353691011    -1.6441316558
    9      C      -1.4048071750    -0.0690127340    -2.3067333824
   10      C      -2.0993223632     1.0944142871    -2.7026027981
   11      H      -1.7846539616     2.0878319536    -2.4044483655
   12      C      -3.1812056789     0.8218295627    -3.5418042989
   13      H      -3.8375037449     1.5752880230    -3.9603690356
   14      C      -3.3370281927    -0.5463716255    -3.7790071470
   15      H      -4.1365838493    -1.0281738997    -4.3305836969
   16      S      -2.0975908124    -1.5020143514    -3.0605543085
 ----------------------------------------------------------------
 Nuclear Repulsion Energy =   627.2123728014 hartrees
 There are       43 alpha and       42 beta electrons
 Applying Cartesian multipole field
    Component          Value
    ---------          -----
     (2,0,0)        1.00000E-11
     (0,2,0)        2.00000E-11
     (0,0,2)       -3.00000E-11
 Nucleus-field energy     =    -0.0000000369 hartrees
 Requested basis set is 6-31++G(d,p)
 There are 76 shells and 234 basis functions
 A cutoff of  1.0D-12 yielded   2536 shell pairs
 There are     25014 function pairs

 Q-Chem warning in module /project/projectdirs/jcesr/qchem/qc44/cnl_qc441/compile/cori/qc_src/libqints/qchem/aobasis.C, line 68:

 Using reconstructed effective core potential

 Smallest overlap matrix eigenvalue = 1.19E-06
 Guess MOs from SCF MO coefficient file
 Reading MOs from coefficient file
 Reading MOs from coefficient file
 An unrestricted hybrid HF-DFT SCF calculation will be
 performed using Pulay DIIS extrapolation
 Exchange:     0.2000 Hartree-Fock + 0.0800 Slater + 0.7200 B88
 Correlation:  0.1900 VWN1RPA + 0.8100 LYP
 Using SG-1 standard quadrature grid
 SCF converges when DIIS error is below 1.0E-08
 Geometry optimization detected.  Setting ReadMinima to 0
 Setting SaveMinima to 0
 ---------------------------------------
  Cycle       Energy         DIIS Error
 ---------------------------------------
    1   -1104.5341097090      2.64E-03
    2   -1104.5429776854      3.04E-04
    3   -1104.5407741061      6.12E-04
    4   -1104.5439145750      7.51E-05
    5   -1104.5439429956      5.29E-05
    6   -1104.5439669015      7.75E-06
    7   -1104.5439682731      2.58E-06
    8   -1104.5439686886      1.71E-06
    9   -1104.5439688914      1.25E-06
   10   -1104.5439690764      7.66E-07
   11   -1104.5439691614      3.85E-07
   12   -1104.5439691859      5.10E-08
   13   -1104.5439691859      1.82E-08
   14   -1104.5439691861      1.40E-08
   15   -1104.5439691856      5.29E-09 Convergence criterion met
 ---------------------------------------
 <S^2> = 0.7616
 SCF time:  CPU 10.18 s  wall 9.69 s
 SCF   energy in the final basis set = -1104.5439691856
 Total energy in the final basis set = -1104.5439691856
 
 --------------------------------------------------------------
 
                    Orbital Energies (a.u.)
 --------------------------------------------------------------
 
 Alpha MOs
 -- Occupied --
-89.098 -89.098 -10.433 -10.433 -10.416 -10.416 -10.391 -10.391
-10.378 -10.378  -8.156  -8.156  -6.121  -6.121  -6.117  -6.117
 -6.113  -6.113  -1.083  -1.059  -0.954  -0.926  -0.923  -0.880
 -0.782  -0.746  -0.736  -0.712  -0.697  -0.649  -0.596  -0.591
 -0.585  -0.579  -0.576  -0.556  -0.549  -0.530  -0.526  -0.445
 -0.434  -0.433  -0.415
 -- Virtual --
 -0.227  -0.214  -0.158  -0.155  -0.135  -0.124  -0.123  -0.108
 -0.100  -0.093  -0.090  -0.087  -0.079  -0.077  -0.063  -0.062
 -0.041  -0.041  -0.037  -0.032  -0.017  -0.011  -0.011  -0.008
 -0.005   0.000   0.002   0.007   0.011   0.015   0.020   0.022
  0.023   0.028   0.034   0.038   0.040   0.047   0.049   0.064
  0.064   0.072   0.073   0.077   0.080   0.088   0.095   0.102
  0.111   0.112   0.118   0.120   0.147   0.150   0.153   0.157
  0.169   0.173   0.192   0.193   0.215   0.224   0.228   0.237
  0.267   0.301   0.311   0.338   0.368   0.374   0.375   0.417
  0.420   0.443   0.450   0.463   0.481   0.496   0.497   0.510
  0.539   0.546   0.559   0.567   0.573   0.592   0.596   0.615
  0.624   0.629   0.639   0.657   0.669   0.712   0.733   0.752
  0.771   0.789   0.795   0.805   0.817   0.828   0.836   0.840
  0.846   0.853   0.860   0.908   0.911   0.922   0.937   0.938
  0.968   1.017   1.023   1.062   1.076   1.104   1.146   1.170
  1.171   1.174   1.182   1.234   1.249   1.288   1.304   1.362
  1.379   1.493   1.514   1.558   1.628   1.664   1.722   1.726
  1.727   1.743   1.784   1.827   1.833   1.847   1.891   1.905
  1.943   1.957   1.998   1.999   2.016   2.052   2.088   2.165
  2.203   2.205   2.241   2.265   2.293   2.294   2.315   2.333
  2.339   2.352   2.397   2.405   2.441   2.454   2.514   2.530
  2.573   2.644   2.673   2.692   2.737   2.987   2.991   3.108
  3.109   3.227   3.243   3.548   3.569   3.794   3.801   4.092
  4.095   4.133   4.146   4.252   4.337   4.488   4.529
 
 Beta MOs
 -- Occupied --
-89.098 -89.098 -10.430 -10.430 -10.413 -10.413 -10.390 -10.390
-10.378 -10.378  -8.157  -8.157  -6.121  -6.121  -6.117  -6.117
 -6.114  -6.114  -1.077  -1.054  -0.945  -0.924  -0.921  -0.870
 -0.778  -0.742  -0.731  -0.709  -0.695  -0.646  -0.588  -0.587
 -0.581  -0.576  -0.573  -0.542  -0.541  -0.529  -0.524  -0.438
 -0.432  -0.411
 -- Virtual --
 -0.348  -0.209  -0.196  -0.154  -0.152  -0.128  -0.121  -0.114
 -0.107  -0.099  -0.092  -0.090  -0.086  -0.077  -0.076  -0.063
 -0.061  -0.040  -0.040  -0.036  -0.030  -0.017  -0.011  -0.010
 -0.007  -0.004   0.001   0.003   0.008   0.012   0.017   0.021
  0.023   0.024   0.028   0.035   0.041   0.042   0.048   0.050
  0.065   0.065   0.073   0.074   0.079   0.081   0.090   0.096
  0.102   0.113   0.114   0.119   0.123   0.147   0.152   0.154
  0.159   0.171   0.175   0.194   0.195   0.217   0.225   0.229
  0.239   0.269   0.304   0.312   0.340   0.369   0.374   0.375
  0.419   0.423   0.445   0.451   0.465   0.487   0.504   0.506
  0.517   0.541   0.549   0.560   0.569   0.574   0.597   0.598
  0.621   0.629   0.632   0.641   0.662   0.675   0.714   0.735
  0.757   0.777   0.790   0.796   0.809   0.819   0.830   0.837
  0.842   0.849   0.855   0.861   0.909   0.913   0.923   0.939
  0.941   0.973   1.021   1.026   1.067   1.079   1.107   1.150
  1.176   1.177   1.178   1.189   1.237   1.256   1.292   1.311
  1.372   1.385   1.504   1.527   1.569   1.634   1.671   1.726
  1.729   1.732   1.746   1.788   1.834   1.838   1.852   1.895
  1.912   1.951   1.967   2.002   2.009   2.029   2.059   2.096
  2.171   2.205   2.208   2.244   2.271   2.295   2.299   2.320
  2.337   2.344   2.355   2.401   2.409   2.446   2.458   2.518
  2.534   2.579   2.647   2.675   2.694   2.740   2.989   2.992
  3.108   3.109   3.228   3.244   3.550   3.570   3.795   3.802
  4.099   4.102   4.136   4.149   4.258   4.345   4.491   4.532
 --------------------------------------------------------------
 
          Ground-State Mulliken Net Atomic Charges

     Atom                 Charge (a.u.)    Spin (a.u.)
  --------------------------------------------------------
      1 S                     0.191205      -0.054660
      2 C                     0.049051       0.294157
      3 H                     0.247291      -0.014002
      4 C                    -0.315719      -0.016653
      5 H                     0.174145       0.001416
      6 C                     0.278412       0.091620
      7 H                     0.183718      -0.005112
      8 C                    -0.307022       0.203348
      9 C                    -0.306610       0.202981
     10 C                     0.276293       0.091821
     11 H                     0.183583      -0.005053
     12 C                    -0.316075      -0.016422
     13 H                     0.174139       0.001397
     14 C                     0.050028       0.293739
     15 H                     0.247287      -0.013994
     16 S                     0.190274      -0.054583
  --------------------------------------------------------
  Sum of atomic charges =     1.000000
  Sum of spin   charges =     1.000000

 -----------------------------------------------------------------
                    Cartesian Multipole Moments
 -----------------------------------------------------------------
    Charge (ESU x 10^10)
                 4.8032
    Dipole Moment (Debye)
         X      -3.1753      Y       0.4434      Z     -10.3446
       Tot      10.8301
    Quadrupole Moments (Debye-Ang)
        XX     -33.7803     XY       0.2967     YY     -64.4724
        XZ      25.1787     YZ       1.9013     ZZ     -30.9809
    Octopole Moments (Debye-Ang^2)
       XXX     101.0045    XXY       6.3551    XYY      32.6222
       YYY      26.9765    XXZ      23.2852    XYZ      -1.5064
       YYZ     116.6993    XZZ     -43.2572    YZZ      -1.2377
       ZZZ     280.5140
    Hexadecapole Moments (Debye-Ang^3)
      XXXX   -1288.7406   XXXY     -44.2545   XXYY    -294.6101
      XYYY     -71.5718   YYYY    -327.1529   XXXZ    -341.9291
      XXYZ     -16.0358   XYYZ    -165.9293   YYYZ    -122.7068
      XXZZ    -236.9974   XYZZ       1.0108   YYZZ    -401.3180
      XZZZ    -309.2102   YZZZ     -65.3339   ZZZZ   -2013.4627
 -----------------------------------------------------------------
 Calculating analytic gradient of the SCF energy
 Gradient of SCF Energy
            1           2           3           4           5           6
    1  -0.0014934  -0.0016553  -0.0000112  -0.0000159  -0.0000674   0.0030089
    2  -0.0008894  -0.0022602   0.0005179   0.0002156  -0.0002788   0.0118180
    3   0.0019885   0.0021573   0.0002793  -0.0043751  -0.0000769  -0.0007789
            7           8           9          10          11          12
    1   0.0001582   0.0044169  -0.0096376   0.0040553   0.0003459   0.0020590
    2   0.0009762  -0.0147382   0.0045580   0.0014637   0.0000084   0.0037053
    3   0.0000021  -0.0018301   0.0112882  -0.0113999  -0.0009175   0.0006816
           13          14          15          16
    1  -0.0000659  -0.0006168   0.0000951  -0.0005760
    2   0.0000450  -0.0024586  -0.0003124  -0.0023708
    3   0.0002928   0.0023374  -0.0005026   0.0008537
 Max gradient component =       1.474E-02
 RMS gradient           =       4.227E-03
 Gradient time:  CPU 1.94 s  wall 1.89 s
 Geometry Optimization Parameters
   NAtoms,    NIC,     NZ,  NCons,   NDum,   NFix, NCnnct, MaxDiis
       16     111       0       1       0       0       0       0

 Cartesian Hessian Update
 Hessian Updated using BFGS Update


** CONSTRAINED OPTIMIZATION IN DELOCALIZED INTERNAL COORDINATES **
   Searching for a Minimum

   Optimization Cycle:   4

                       Coordinates (Angstroms)
     ATOM                X               Y               Z
      1  S         0.0230755660    0.2632456307    0.0650036723
      2  C         1.7409891877    0.2139618303   -0.0502748330
      3  H         2.3440096612    0.3266751152    0.8436323188
      4  C         2.1964992997    0.0014677539   -1.3540987986
      5  H         3.2460953133   -0.0065694423   -1.6222612922
      6  C         1.1498509840   -0.2076342057   -2.2539839062
      7  H         1.2743548967   -0.3713427567   -3.3181150024
      8  C        -0.1210954706   -0.1353691011   -1.6441316558
      9  C        -1.4048071750   -0.0690127340   -2.3067333824
     10  C        -2.0993223632    1.0944142871   -2.7026027981
     11  H        -1.7846539616    2.0878319536   -2.4044483655
     12  C        -3.1812056789    0.8218295627   -3.5418042989
     13  H        -3.8375037449    1.5752880230   -3.9603690356
     14  C        -3.3370281927   -0.5463716255   -3.7790071470
     15  H        -4.1365838493   -1.0281738997   -4.3305836969
     16  S        -2.0975908124   -1.5020143514   -3.0605543085
   Point Group: c1    Number of degrees of freedom:    42


   Energy is  -1104.543969186

              Constraints and their Current Values
                                        Value     Constraint
   Dihedral:        6   8   9  10      -90.000      -90.000
 Hessian Updated using BFGS Update

 40 Hessian modes will be used to form the next step
  Hessian Eigenvalues:
     0.011406    0.045000    0.045000    0.045001    0.045002    0.045003
     0.045005    0.045011    0.045013    0.045232    0.052343    0.159868
     0.159948    0.159972    0.159992    0.160000    0.161850    0.221284
     0.222489    0.237842    0.250027    0.252833    0.276801    0.294452
     0.298839    0.312551    0.320556    0.354776    0.354951    0.355128
     0.355208    0.358272    0.358562    0.381855    0.404881    0.420640
     0.461591    0.463586    0.497935    0.586954

 Minimum Search - Taking Simple RFO Step
 Searching for Lamda that Minimizes Along All modes
 Value Taken    Lamda =  -0.00321139
 Calculated Step too Large.  Step scaled by  0.655299
 Step Taken.  Stepsize is  0.300000

                             Maximum     Tolerance    Cnvgd?
         Gradient           0.005787      0.000300      NO
         Displacement       0.241978      0.001200      NO
         Energy change     -0.002533      0.000001      NO


 New Cartesian Coordinates Obtained by Inverse Iteration

 Displacement from previous Coordinates is:  0.751943
 ----------------------------------------------------------------
             Standard Nuclear Orientation (Angstroms)
    I     Atom           X                Y                Z
 ----------------------------------------------------------------
    1      S       0.0370842147     0.3182242581     0.0703548067
    2      C       1.7496684617     0.2955742217    -0.0848286903
    3      H       2.3749334400     0.4652449989     0.7843282530
    4      C       2.1758010803    -0.0018565834    -1.3809668678
    5      H       3.2185832671    -0.0063304069    -1.6745264812
    6      C       1.1114959940    -0.2851364604    -2.2371500323
    7      H       1.2106999726    -0.5130098789    -3.2923362528
    8      C      -0.1505117600    -0.2008745805    -1.6019353045
    9      C      -1.4357534030    -0.1137593479    -2.2435293377
   10      C      -2.1186748148     1.0670471516    -2.6212325886
   11      H      -1.8223014759     2.0445515166    -2.2579103421
   12      C      -3.1554985672     0.8346977430    -3.5251331414
   13      H      -3.7934590627     1.6057308825    -3.9399966872
   14      C      -3.2857369616    -0.5180321485    -3.8471119433
   15      H      -4.0605330493    -0.9719189206    -4.4544709578
   16      S      -2.0807136758    -1.5019264051    -3.1138869627
 ----------------------------------------------------------------
 Nuclear Repulsion Energy =   628.1464652310 hartrees
 There are       43 alpha and       42 beta electrons
 Applying Cartesian multipole field
    Component          Value
    ---------          -----
     (2,0,0)        1.00000E-11
     (0,2,0)        2.00000E-11
     (0,0,2)       -3.00000E-11
 Nucleus-field energy     =    -0.0000000374 hartrees
 Requested basis set is 6-31++G(d,p)
 There are 76 shells and 234 basis functions
 A cutoff of  1.0D-12 yielded   2546 shell pairs
 There are     25094 function pairs

 Q-Chem warning in module /project/projectdirs/jcesr/qchem/qc44/cnl_qc441/compile/cori/qc_src/libqints/qchem/aobasis.C, line 68:

 Using reconstructed effective core potential

 Smallest overlap matrix eigenvalue = 1.54E-06
 Guess MOs from SCF MO coefficient file
 Reading MOs from coefficient file
 Reading MOs from coefficient file
 An unrestricted hybrid HF-DFT SCF calculation will be
 performed using Pulay DIIS extrapolation
 Exchange:     0.2000 Hartree-Fock + 0.0800 Slater + 0.7200 B88
 Correlation:  0.1900 VWN1RPA + 0.8100 LYP
 Using SG-1 standard quadrature grid
 SCF converges when DIIS error is below 1.0E-08
 Geometry optimization detected.  Setting ReadMinima to 0
 Setting SaveMinima to 0
 ---------------------------------------
  Cycle       Energy         DIIS Error
 ---------------------------------------
    1   -1104.5270930579      2.72E-03
    2   -1104.5439362043      3.99E-04
    3   -1104.5390545111      8.76E-04
    4   -1104.5454257839      9.61E-05
    5   -1104.5454848790      4.95E-05
    6   -1104.5455055218      9.91E-06
    7   -1104.5455071046      3.17E-06
    8   -1104.5455074582      1.74E-06
    9   -1104.5455076495      1.06E-06
   10   -1104.5455077875      8.60E-07
   11   -1104.5455078579      3.48E-07
   12   -1104.5455078833      1.04E-07
   13   -1104.5455078847      7.30E-08
   14   -1104.5455078850      1.26E-08
   15   -1104.5455078849      5.49E-09 Convergence criterion met
 ---------------------------------------
 <S^2> = 0.7628
 SCF time:  CPU 10.35 s  wall 11.59 s
 SCF   energy in the final basis set = -1104.5455078849
 Total energy in the final basis set = -1104.5455078849
 
 --------------------------------------------------------------
 
                    Orbital Energies (a.u.)
 --------------------------------------------------------------
 
 Alpha MOs
 -- Occupied --
-89.097 -89.097 -10.434 -10.433 -10.417 -10.417 -10.393 -10.393
-10.378 -10.378  -8.156  -8.156  -6.120  -6.120  -6.116  -6.116
 -6.113  -6.113  -1.085  -1.060  -0.955  -0.927  -0.923  -0.880
 -0.784  -0.748  -0.735  -0.712  -0.697  -0.650  -0.597  -0.592
 -0.586  -0.579  -0.578  -0.556  -0.549  -0.530  -0.524  -0.449
 -0.435  -0.434  -0.412
 -- Virtual --
 -0.230  -0.212  -0.158  -0.155  -0.135  -0.125  -0.123  -0.108
 -0.100  -0.094  -0.090  -0.086  -0.078  -0.077  -0.064  -0.063
 -0.041  -0.041  -0.034  -0.034  -0.019  -0.013  -0.010  -0.006
 -0.004   0.001   0.003   0.005   0.012   0.015   0.019   0.022
  0.023   0.028   0.034   0.037   0.041   0.046   0.048   0.064
  0.067   0.072   0.073   0.078   0.082   0.088   0.096   0.102
  0.110   0.111   0.119   0.119   0.144   0.151   0.154   0.160
  0.169   0.170   0.193   0.195   0.213   0.225   0.226   0.236
  0.261   0.299   0.309   0.341   0.368   0.376   0.378   0.414
  0.416   0.443   0.459   0.462   0.476   0.496   0.501   0.510
  0.534   0.545   0.558   0.568   0.580   0.591   0.598   0.610
  0.615   0.629   0.645   0.655   0.665   0.708   0.734   0.746
  0.765   0.790   0.796   0.806   0.820   0.821   0.829   0.842
  0.850   0.855   0.858   0.909   0.916   0.920   0.933   0.939
  0.974   1.004   1.022   1.063   1.069   1.104   1.145   1.159
  1.167   1.168   1.188   1.218   1.239   1.288   1.314   1.378
  1.383   1.480   1.516   1.546   1.638   1.662   1.720   1.725
  1.725   1.743   1.784   1.826   1.832   1.844   1.894   1.899
  1.939   1.956   1.987   1.995   2.024   2.054   2.082   2.168
  2.204   2.204   2.237   2.271   2.292   2.295   2.313   2.332
  2.339   2.352   2.396   2.406   2.443   2.454   2.509   2.530
  2.572   2.640   2.673   2.692   2.735   2.987   2.991   3.107
  3.108   3.227   3.239   3.546   3.566   3.796   3.804   4.091
  4.091   4.135   4.146   4.250   4.335   4.487   4.525
 
 Beta MOs
 -- Occupied --
-89.097 -89.097 -10.431 -10.430 -10.413 -10.413 -10.392 -10.392
-10.378 -10.378  -8.156  -8.156  -6.121  -6.121  -6.117  -6.116
 -6.114  -6.114  -1.078  -1.054  -0.947  -0.925  -0.921  -0.870
 -0.779  -0.744  -0.730  -0.709  -0.695  -0.647  -0.589  -0.588
 -0.581  -0.576  -0.575  -0.542  -0.542  -0.529  -0.522  -0.438
 -0.432  -0.416
 -- Virtual --
 -0.345  -0.212  -0.194  -0.154  -0.151  -0.129  -0.121  -0.115
 -0.107  -0.100  -0.093  -0.089  -0.086  -0.076  -0.076  -0.064
 -0.062  -0.040  -0.040  -0.033  -0.033  -0.018  -0.012  -0.010
 -0.005  -0.003   0.002   0.005   0.006   0.014   0.017   0.021
  0.022   0.024   0.029   0.034   0.039   0.043   0.046   0.049
  0.065   0.068   0.073   0.075   0.080   0.084   0.090   0.097
  0.102   0.110   0.113   0.120   0.123   0.145   0.152   0.155
  0.162   0.171   0.172   0.195   0.196   0.215   0.226   0.227
  0.238   0.264   0.302   0.310   0.343   0.369   0.376   0.378
  0.416   0.418   0.444   0.460   0.464   0.483   0.505   0.511
  0.514   0.536   0.548   0.559   0.570   0.581   0.595   0.600
  0.616   0.620   0.633   0.647   0.660   0.671   0.710   0.736
  0.751   0.771   0.792   0.797   0.809   0.821   0.824   0.830
  0.844   0.853   0.857   0.860   0.911   0.917   0.921   0.936
  0.941   0.979   1.008   1.025   1.069   1.072   1.107   1.151
  1.162   1.173   1.173   1.194   1.221   1.247   1.292   1.321
  1.383   1.392   1.491   1.529   1.557   1.643   1.670   1.726
  1.727   1.729   1.746   1.787   1.832   1.837   1.849   1.900
  1.906   1.947   1.966   1.992   2.005   2.037   2.059   2.089
  2.175   2.207   2.207   2.240   2.276   2.295   2.297   2.318
  2.336   2.343   2.356   2.400   2.410   2.448   2.457   2.513
  2.534   2.578   2.643   2.676   2.694   2.738   2.989   2.992
  3.108   3.109   3.228   3.241   3.548   3.568   3.797   3.805
  4.098   4.098   4.138   4.149   4.256   4.343   4.491   4.529
 --------------------------------------------------------------
 
          Ground-State Mulliken Net Atomic Charges

     Atom                 Charge (a.u.)    Spin (a.u.)
  --------------------------------------------------------
      1 S                     0.202002      -0.057835
      2 C                     0.048094       0.302132
      3 H                     0.249469      -0.014619
      4 C                    -0.327327      -0.026234
      5 H                     0.174324       0.002104
      6 C                     0.248061       0.112446
      7 H                     0.183659      -0.006602
      8 C                    -0.282011       0.188395
      9 C                    -0.273501       0.188319
     10 C                     0.246622       0.112858
     11 H                     0.183583      -0.006579
     12 C                    -0.326592      -0.026348
     13 H                     0.174357       0.002100
     14 C                     0.048300       0.302421
     15 H                     0.249451      -0.014621
     16 S                     0.201511      -0.057938
  --------------------------------------------------------
  Sum of atomic charges =     1.000000
  Sum of spin   charges =     1.000000

 -----------------------------------------------------------------
                    Cartesian Multipole Moments
 -----------------------------------------------------------------
    Charge (ESU x 10^10)
                 4.8032
    Dipole Moment (Debye)
         X      -3.1280      Y       0.5328      Z     -10.4281
       Tot      10.9001
    Quadrupole Moments (Debye-Ang)
        XX     -34.5179     XY       0.1705     YY     -64.4352
        XZ      25.1584     YZ       2.5740     ZZ     -30.4724
    Octopole Moments (Debye-Ang^2)
       XXX     104.9854    XXY       8.6148    XYY      33.6086
       YYY      26.5339    XXZ      25.0351    XYZ      -0.4890
       YYZ     117.6298    XZZ     -45.9381    YZZ      -4.1096
       ZZZ     275.0679
    Hexadecapole Moments (Debye-Ang^3)
      XXXX   -1292.1914   XXXY     -49.3965   XXYY    -293.4043
      XYYY     -72.8728   YYYY    -333.0880   XXXZ    -353.4246
      XXYZ     -22.3776   XYYZ    -168.3897   YYYZ    -133.0277
      XXZZ    -233.5133   XYZZ       2.1748   YYZZ    -404.7724
      XZZZ    -286.2340   YZZZ     -62.6229   ZZZZ   -1986.4266
 -----------------------------------------------------------------
 Calculating analytic gradient of the SCF energy
 Gradient of SCF Energy
            1           2           3           4           5           6
    1   0.0000013  -0.0018257   0.0001703  -0.0002010  -0.0000023   0.0036752
    2  -0.0000105  -0.0004041  -0.0002785  -0.0003667   0.0000848   0.0132163
    3   0.0001800   0.0022090   0.0001690  -0.0036542   0.0002146  -0.0002437
            7           8           9          10          11          12
    1  -0.0002104   0.0015417  -0.0089483   0.0039968   0.0005548   0.0015963
    2   0.0007152  -0.0197124   0.0056279   0.0012048  -0.0000414   0.0031579
    3  -0.0001020  -0.0043038   0.0171635  -0.0130161  -0.0004890   0.0011519
           13          14          15          16
    1  -0.0000526   0.0002106  -0.0003474  -0.0001595
    2  -0.0001732  -0.0028030  -0.0000524  -0.0001648
    3  -0.0001137   0.0007311   0.0001139  -0.0000106
 Max gradient component =       1.971E-02
 RMS gradient           =       5.076E-03
 Gradient time:  CPU 1.91 s  wall 1.92 s
 Geometry Optimization Parameters
   NAtoms,    NIC,     NZ,  NCons,   NDum,   NFix, NCnnct, MaxDiis
       16     111       0       1       0       0       0       0

 Cartesian Hessian Update
 Hessian Updated using BFGS Update


** CONSTRAINED OPTIMIZATION IN DELOCALIZED INTERNAL COORDINATES **
   Searching for a Minimum

   Optimization Cycle:   5

                       Coordinates (Angstroms)
     ATOM                X               Y               Z
      1  S         0.0370842147    0.3182242581    0.0703548067
      2  C         1.7496684617    0.2955742217   -0.0848286903
      3  H         2.3749334400    0.4652449989    0.7843282530
      4  C         2.1758010803   -0.0018565834   -1.3809668678
      5  H         3.2185832671   -0.0063304069   -1.6745264812
      6  C         1.1114959940   -0.2851364604   -2.2371500323
      7  H         1.2106999726   -0.5130098789   -3.2923362528
      8  C        -0.1505117600   -0.2008745805   -1.6019353045
      9  C        -1.4357534030   -0.1137593479   -2.2435293377
     10  C        -2.1186748148    1.0670471516   -2.6212325886
     11  H        -1.8223014759    2.0445515166   -2.2579103421
     12  C        -3.1554985672    0.8346977430   -3.5251331414
     13  H        -3.7934590627    1.6057308825   -3.9399966872
     14  C        -3.2857369616   -0.5180321485   -3.8471119433
     15  H        -4.0605330493   -0.9719189206   -4.4544709578
     16  S        -2.0807136758   -1.5019264051   -3.1138869627
   Point Group: c1    Number of degrees of freedom:    42


   Energy is  -1104.545507885

              Constraints and their Current Values
                                        Value     Constraint
   Dihedral:        6   8   9  10      -90.000      -90.000
 Hessian Updated using BFGS Update

 41 Hessian modes will be used to form the next step
  Hessian Eigenvalues:
     0.012386    0.045000    0.045000    0.045001    0.045001    0.045002
     0.045004    0.045008    0.045011    0.045021    0.045513    0.052091
     0.159917    0.159948    0.159980    0.159993    0.160000    0.162483
     0.221283    0.222511    0.237847    0.250033    0.252062    0.276423
     0.294472    0.299435    0.312586    0.323471    0.354776    0.354950
     0.355129    0.355216    0.358271    0.358553    0.383055    0.404881
     0.420194    0.461839    0.463590    0.497941    0.569570

 Minimum Search - Taking Simple RFO Step
 Searching for Lamda that Minimizes Along All modes
 Value Taken    Lamda =  -0.00084009
 Step Taken.  Stepsize is  0.238784

                             Maximum     Tolerance    Cnvgd?
         Gradient           0.002999      0.000300      NO
         Displacement       0.204767      0.001200      NO
         Energy change     -0.001539      0.000001      NO


 New Cartesian Coordinates Obtained by Inverse Iteration

 Displacement from previous Coordinates is:  0.646532
 ----------------------------------------------------------------
             Standard Nuclear Orientation (Angstroms)
    I     Atom           X                Y                Z
 ----------------------------------------------------------------
    1      S       0.0457455083     0.3557080015     0.0731036381
    2      C       1.7540042876     0.3622480978    -0.1206920593
    3      H       2.3952185245     0.5885737044     0.7233332260
    4      C       2.1559144136    -0.0056350435    -1.4037592198
    5      H       3.1913965967    -0.0081600392    -1.7223696978
    6      C       1.0780330676    -0.3492369445    -2.2204566284
    7      H       1.1608419442    -0.6320704571    -3.2638719861
    8      C      -0.1746514178    -0.2553309753    -1.5655690556
    9      C      -1.4623551759    -0.1516175028    -2.1907843791
   10      C      -2.1348036872     1.0413352889    -2.5537956814
   11      H      -1.8601805252     2.0043887034    -2.1381742655
   12      C      -3.1323922629     0.8444010692    -3.5092571829
   13      H      -3.7528429588     1.6324690962    -3.9187581442
   14      C      -3.2379709600    -0.4896065767    -3.9000357210
   15      H      -3.9835656649    -0.9183170252    -4.5595376340
[...]
    8   -1104.5459800858      7.52E-09 Convergence criterion met
 ---------------------------------------
 <S^2> = 0.7633
 SCF time:  CPU 5.28 s  wall 5.05 s
 SCF   energy in the final basis set = -1104.5459800858
 Total energy in the final basis set = -1104.5459800858
 
 --------------------------------------------------------------
 
                    Orbital Energies (a.u.)
 --------------------------------------------------------------
 
 Alpha MOs
 -- Occupied --
-89.096 -89.096 -10.434 -10.434 -10.417 -10.417 -10.395 -10.395
-10.378 -10.378  -8.155  -8.155  -6.120  -6.120  -6.116  -6.116
 -6.112  -6.112  -1.085  -1.060  -0.957  -0.928  -0.922  -0.881
 -0.785  -0.750  -0.734  -0.712  -0.698  -0.651  -0.598  -0.592
 -0.587  -0.579  -0.579  -0.556  -0.548  -0.530  -0.522  -0.452
 -0.435  -0.434  -0.411
 -- Virtual --
 -0.233  -0.210  -0.157  -0.155  -0.136  -0.126  -0.123  -0.109
 -0.100  -0.095  -0.089  -0.086  -0.078  -0.078  -0.065  -0.063
 -0.041  -0.041  -0.035  -0.031  -0.019  -0.015  -0.009  -0.005
 -0.003   0.002   0.004   0.004   0.013   0.014   0.019   0.022
  0.024   0.029   0.034   0.035   0.041   0.044   0.047   0.063
  0.070   0.072   0.073   0.078   0.086   0.088   0.098   0.101
  0.109   0.110   0.120   0.120   0.142   0.149   0.156   0.161
  0.168   0.169   0.192   0.195   0.211   0.225   0.225   0.236
  0.258   0.300   0.310   0.344   0.366   0.380   0.381   0.413
  0.413   0.446   0.461   0.461   0.471   0.495   0.501   0.510
  0.529   0.541   0.557   0.569   0.579   0.591   0.599   0.603
  0.607   0.629   0.650   0.654   0.663   0.706   0.735   0.740
  0.760   0.787   0.802   0.805   0.817   0.822   0.827   0.841
  0.851   0.856   0.860   0.913   0.916   0.921   0.931   0.937
  0.979   1.000   1.019   1.063   1.063   1.108   1.137   1.153
  1.163   1.165   1.191   1.197   1.234   1.292   1.324   1.374
  1.395   1.470   1.516   1.538   1.646   1.661   1.718   1.724
  1.724   1.742   1.785   1.818   1.833   1.838   1.894   1.897
  1.936   1.953   1.984   1.992   2.031   2.055   2.077   2.169
  2.202   2.205   2.235   2.274   2.290   2.299   2.314   2.331
  2.338   2.351   2.396   2.407   2.443   2.455   2.504   2.529
  2.573   2.637   2.674   2.693   2.736   2.987   2.991   3.106
  3.107   3.228   3.238   3.545   3.564   3.797   3.805   4.087
  4.094   4.136   4.148   4.247   4.334   4.487   4.522
 
 Beta MOs
 -- Occupied --
-89.097 -89.097 -10.431 -10.431 -10.413 -10.413 -10.393 -10.393
-10.378 -10.378  -8.156  -8.156  -6.120  -6.120  -6.116  -6.116
 -6.113  -6.113  -1.079  -1.055  -0.949  -0.925  -0.920  -0.871
 -0.780  -0.745  -0.729  -0.709  -0.696  -0.648  -0.590  -0.589
 -0.582  -0.577  -0.576  -0.542  -0.541  -0.528  -0.520  -0.438
 -0.433  -0.420
 -- Virtual --
 -0.343  -0.214  -0.191  -0.153  -0.152  -0.129  -0.121  -0.115
 -0.108  -0.100  -0.094  -0.088  -0.085  -0.077  -0.076  -0.065
 -0.063  -0.040  -0.040  -0.034  -0.030  -0.018  -0.014  -0.009
 -0.003  -0.003   0.002   0.005   0.006   0.014   0.016   0.020
  0.022   0.025   0.030   0.035   0.037   0.043   0.045   0.048
  0.064   0.070   0.073   0.074   0.080   0.087   0.090   0.099
  0.102   0.109   0.111   0.121   0.124   0.142   0.150   0.157
  0.163   0.169   0.171   0.195   0.196   0.213   0.226   0.227
  0.238   0.261   0.303   0.311   0.346   0.367   0.380   0.381
  0.415   0.415   0.447   0.463   0.463   0.478   0.505   0.511
  0.514   0.531   0.543   0.558   0.571   0.581   0.595   0.602
  0.609   0.611   0.634   0.652   0.659   0.669   0.708   0.737
  0.745   0.765   0.789   0.803   0.807   0.819   0.824   0.829
  0.843   0.853   0.857   0.863   0.914   0.917   0.922   0.934
  0.938   0.984   1.004   1.023   1.066   1.068   1.111   1.143
  1.155   1.170   1.170   1.198   1.200   1.241   1.295   1.332
  1.378   1.405   1.480   1.529   1.550   1.650   1.668   1.725
  1.726   1.728   1.744   1.788   1.825   1.838   1.843   1.900
  1.904   1.944   1.960   1.992   2.003   2.045   2.060   2.083
  2.176   2.206   2.208   2.238   2.280   2.293   2.302   2.319
  2.335   2.342   2.355   2.400   2.411   2.448   2.459   2.509
  2.533   2.579   2.640   2.677   2.695   2.739   2.989   2.993
  3.107   3.108   3.229   3.240   3.547   3.566   3.798   3.805
  4.094   4.101   4.139   4.151   4.254   4.342   4.490   4.526
 --------------------------------------------------------------
 
          Ground-State Mulliken Net Atomic Charges

     Atom                 Charge (a.u.)    Spin (a.u.)
  --------------------------------------------------------
      1 S                     0.211206      -0.060627
      2 C                     0.041575       0.303979
      3 H                     0.251691      -0.014721
      4 C                    -0.338594      -0.029585
      5 H                     0.174395       0.002321
      6 C                     0.210308       0.121494
      7 H                     0.182496      -0.007741
      8 C                    -0.236830       0.184681
      9 C                    -0.228435       0.185041
     10 C                     0.207843       0.121463
     11 H                     0.182407      -0.007717
     12 C                    -0.337070      -0.029439
     13 H                     0.174436       0.002310
     14 C                     0.040743       0.303896
     15 H                     0.251650      -0.014714
     16 S                     0.212178      -0.060641
  --------------------------------------------------------
  Sum of atomic charges =     1.000000
  Sum of spin   charges =     1.000000

 -----------------------------------------------------------------
                    Cartesian Multipole Moments
 -----------------------------------------------------------------
    Charge (ESU x 10^10)
                 4.8032
    Dipole Moment (Debye)
         X      -3.0826      Y       0.6173      Z     -10.5056
       Tot      10.9659
    Quadrupole Moments (Debye-Ang)
        XX     -35.1941     XY       0.0058     YY     -64.3442
        XZ      24.9859     YZ       3.0640     ZZ     -30.0831
    Octopole Moments (Debye-Ang^2)
       XXX     109.0541    XXY      11.0889    XYY      34.6995
       YYY      26.6423    XXZ      26.7586    XYZ       0.7514
       YYZ     118.3677    XZZ     -47.7737    YZZ      -6.0320
       ZZZ     269.8956
    Hexadecapole Moments (Debye-Ang^3)
      XXXX   -1299.9697   XXXY     -55.0051   XXYY    -292.0152
      XYYY     -74.0108   YYYY    -338.4665   XXXZ    -366.0154
      XXYZ     -28.4736   XYYZ    -170.3803   YYYZ    -140.6416
      XXZZ    -232.3391   XYZZ       1.7161   YYZZ    -407.2888
      XZZZ    -265.8525   YZZZ     -60.6841   ZZZZ   -1954.3314
 -----------------------------------------------------------------
 Calculating analytic gradient of the SCF energy
 Gradient of SCF Energy
            1           2           3           4           5           6
    1  -0.0000403   0.0000562  -0.0000104   0.0000173  -0.0000033   0.0010884
    2   0.0000005   0.0000486  -0.0000084  -0.0000142   0.0000308   0.0149197
    3   0.0000099  -0.0000639   0.0000113   0.0001052  -0.0000134   0.0001065
            7           8           9          10          11          12
    1   0.0000115   0.0020259  -0.0096577   0.0065451  -0.0000058  -0.0000705
    2   0.0000082  -0.0240161   0.0095812  -0.0004851   0.0000052  -0.0000860
    3   0.0000027  -0.0081793   0.0215434  -0.0134519  -0.0000181  -0.0000204
           13          14          15          16
    1   0.0000218   0.0000251  -0.0000074   0.0000040
    2   0.0000031   0.0000790  -0.0000229  -0.0000438
    3  -0.0000223  -0.0000402   0.0000206   0.0000098
 Max gradient component =       2.402E-02
 RMS gradient           =       6.029E-03
 Gradient time:  CPU 1.96 s  wall 1.90 s
 Geometry Optimization Parameters
   NAtoms,    NIC,     NZ,  NCons,   NDum,   NFix, NCnnct, MaxDiis
       16     111       0       1       0       0       0       0

 Cartesian Hessian Update
 Hessian Updated using BFGS Update


** CONSTRAINED OPTIMIZATION IN DELOCALIZED INTERNAL COORDINATES **
   Searching for a Minimum

   Optimization Cycle:   9

                       Coordinates (Angstroms)
     ATOM                X               Y               Z
      1  S         0.0455839858    0.3528181219    0.0727019092
      2  C         1.7554420967    0.3615099870   -0.1209978701
      3  H         2.3940999344    0.6017045496    0.7210270445
      4  C         2.1577007498   -0.0074447298   -1.4020658130
      5  H         3.1928187401   -0.0139847599   -1.7219831524
      6  C         1.0795163461   -0.3500994906   -2.2210094660
      7  H         1.1676865569   -0.6403584972   -3.2620058537
      8  C        -0.1723269375   -0.2553496203   -1.5692541955
      9  C        -1.4617140608   -0.1494510726   -2.1924157605
     10  C        -2.1347465427    1.0412715352   -2.5535418180
     11  H        -1.8676966255    2.0047964095   -2.1339588614
     12  C        -3.1350390928    0.8442623364   -3.5079901286
     13  H        -3.7563799190    1.6342792787   -3.9124655542
     14  C        -3.2404661668   -0.4878830604   -3.8996686964
     15  H        -3.9778509892   -0.9158173212   -4.5688230829
     16  S        -2.0715444156   -1.5020276266   -3.1478812309
   Point Group: c1    Number of degrees of freedom:    42


   Energy is  -1104.545980086

              Constraints and their Current Values
                                        Value     Constraint
   Dihedral:        6   8   9  10      -90.000      -90.000
 Hessian Updated using BFGS Update

 41 Hessian modes will be used to form the next step
  Hessian Eigenvalues:
     0.013760    0.019373    0.042016    0.045000    0.045001    0.045001
     0.045003    0.045010    0.045012    0.045065    0.045783    0.050335
     0.148904    0.159933    0.159955    0.159995    0.160003    0.160122
     0.221111    0.223002    0.238131    0.242895    0.250336    0.280144
     0.286406    0.295156    0.305689    0.313059    0.354777    0.354921
     0.355126    0.355139    0.358276    0.358596    0.391845    0.405215
     0.429244    0.453037    0.463690    0.497319    0.502129

 Minimum Search - Taking Simple RFO Step
 Searching for Lamda that Minimizes Along All modes
 Value Taken    Lamda =   0.00000000
 Step Taken.  Stepsize is  0.002595

                             Maximum     Tolerance    Cnvgd?
         Gradient           0.000079      0.000300     YES
         Displacement       0.001596      0.001200      NO
         Energy change     -0.000000      0.000001     YES

 Final energy is   -1104.54598008577     


 ******************************
 **  OPTIMIZATION CONVERGED  **
 ******************************

                       Coordinates (Angstroms)
     ATOM                X               Y               Z
      1  S         0.0455839858    0.3528181219    0.0727019092
      2  C         1.7554420967    0.3615099870   -0.1209978701
      3  H         2.3940999344    0.6017045496    0.7210270445
      4  C         2.1577007498   -0.0074447298   -1.4020658130
      5  H         3.1928187401   -0.0139847599   -1.7219831524
      6  C         1.0795163461   -0.3500994906   -2.2210094660
      7  H         1.1676865569   -0.6403584972   -3.2620058537
      8  C        -0.1723269375   -0.2553496203   -1.5692541955
      9  C        -1.4617140608   -0.1494510726   -2.1924157605
     10  C        -2.1347465427    1.0412715352   -2.5535418180
     11  H        -1.8676966255    2.0047964095   -2.1339588614
     12  C        -3.1350390928    0.8442623364   -3.5079901286
     13  H        -3.7563799190    1.6342792787   -3.9124655542
     14  C        -3.2404661668   -0.4878830604   -3.8996686964
     15  H        -3.9778509892   -0.9158173212   -4.5688230829
     16  S        -2.0715444156   -1.5020276266   -3.1478812309

Z-matrix Print:
$molecule
1 2
S 
C  1 1.720480
H  2 1.083804 1 119.953461
C  2 1.392529 1 112.926544 3 177.791167 0
H  4 1.083417 2 123.308267 1 177.042111 0
C  4 1.396556 2 112.420867 1 -2.305361 0
H  6 1.084318 4 124.486514 2 178.249149 0
C  6 1.414640 4 113.359161 2 -0.407651 0
C  8 1.435989 6 126.873110 4 160.295830 0
C  9 1.414523 8 126.843545 6 -89.999999 0
H  10 1.084296 9 122.157950 8 -18.354940 0
C  10 1.396625 9 113.365616 8 160.320113 0
H  12 1.083448 10 124.258836 9 -179.726217 0
C  12 1.392507 10 112.423200 9 -0.386668 0
H  14 1.083782 12 127.102899 10 175.293435 0
S  14 1.720817 12 112.907870 10 -2.319008 0
$end

 
 --------------------------------------------------------------
 
                    Orbital Energies (a.u.)
 --------------------------------------------------------------
 
 Alpha MOs
 -- Occupied --
-89.096 -89.096 -10.434 -10.434 -10.417 -10.417 -10.395 -10.395
-10.378 -10.378  -8.155  -8.155  -6.120  -6.120  -6.116  -6.116
 -6.112  -6.112  -1.085  -1.060  -0.957  -0.928  -0.922  -0.881
 -0.785  -0.750  -0.734  -0.712  -0.698  -0.651  -0.598  -0.592
 -0.587  -0.579  -0.579  -0.556  -0.548  -0.530  -0.522  -0.452
 -0.435  -0.434  -0.411
 -- Virtual --
 -0.233  -0.210  -0.157  -0.155  -0.136  -0.126  -0.123  -0.109
 -0.100  -0.095  -0.089  -0.086  -0.078  -0.078  -0.065  -0.063
 -0.041  -0.041  -0.035  -0.031  -0.019  -0.015  -0.009  -0.005
 -0.003   0.002   0.004   0.004   0.013   0.014   0.019   0.022
  0.024   0.029   0.034   0.035   0.041   0.044   0.047   0.063
  0.070   0.072   0.073   0.078   0.086   0.088   0.098   0.101
  0.109   0.110   0.120   0.120   0.142   0.149   0.156   0.161
  0.168   0.169   0.192   0.195   0.211   0.225   0.225   0.236
  0.258   0.300   0.310   0.344   0.366   0.380   0.381   0.413
  0.413   0.446   0.461   0.461   0.471   0.495   0.501   0.510
  0.529   0.541   0.557   0.569   0.579   0.591   0.599   0.603
  0.607   0.629   0.650   0.654   0.663   0.706   0.735   0.740
  0.760   0.787   0.802   0.805   0.817   0.822   0.827   0.841
  0.851   0.856   0.860   0.913   0.916   0.921   0.931   0.937
  0.979   1.000   1.019   1.063   1.063   1.108   1.137   1.153
  1.163   1.165   1.191   1.197   1.234   1.292   1.324   1.374
  1.395   1.470   1.516   1.538   1.646   1.661   1.718   1.724
  1.724   1.742   1.785   1.818   1.833   1.838   1.894   1.897
  1.936   1.953   1.984   1.992   2.031   2.055   2.077   2.169
  2.202   2.205   2.235   2.274   2.290   2.299   2.314   2.331
  2.338   2.351   2.396   2.407   2.443   2.455   2.504   2.529
  2.573   2.637   2.674   2.693   2.736   2.987   2.991   3.106
  3.107   3.228   3.238   3.545   3.564   3.797   3.805   4.087
  4.094   4.136   4.148   4.247   4.334   4.487   4.522
 
 Beta MOs
 -- Occupied --
-89.097 -89.097 -10.431 -10.431 -10.413 -10.413 -10.393 -10.393
-10.378 -10.378  -8.156  -8.156  -6.120  -6.120  -6.116  -6.116
 -6.113  -6.113  -1.079  -1.055  -0.949  -0.925  -0.920  -0.871
 -0.780  -0.745  -0.729  -0.709  -0.696  -0.648  -0.590  -0.589
 -0.582  -0.577  -0.576  -0.542  -0.541  -0.528  -0.520  -0.438
 -0.433  -0.420
 -- Virtual --
 -0.343  -0.214  -0.191  -0.153  -0.152  -0.129  -0.121  -0.115
 -0.108  -0.100  -0.094  -0.088  -0.085  -0.077  -0.076  -0.065
 -0.063  -0.040  -0.040  -0.034  -0.030  -0.018  -0.014  -0.009
 -0.003  -0.003   0.002   0.005   0.006   0.014   0.016   0.020
  0.022   0.025   0.030   0.035   0.037   0.043   0.045   0.048
  0.064   0.070   0.073   0.074   0.080   0.087   0.090   0.099
  0.102   0.109   0.111   0.121   0.124   0.142   0.150   0.157
  0.163   0.169   0.171   0.195   0.196   0.213   0.226   0.227
  0.238   0.261   0.303   0.311   0.346   0.367   0.380   0.381
  0.415   0.415   0.447   0.463   0.463   0.478   0.505   0.511
  0.514   0.531   0.543   0.558   0.571   0.581   0.595   0.602
  0.609   0.611   0.634   0.652   0.659   0.669   0.708   0.737
  0.745   0.765   0.789   0.803   0.807   0.819   0.824   0.829
  0.843   0.853   0.857   0.863   0.914   0.917   0.922   0.934
  0.938   0.984   1.004   1.023   1.066   1.068   1.111   1.143
  1.155   1.170   1.170   1.198   1.200   1.241   1.295   1.332
  1.378   1.405   1.480   1.529   1.550   1.650   1.668   1.725
  1.726   1.728   1.744   1.788   1.825   1.838   1.843   1.900
  1.904   1.944   1.960   1.992   2.003   2.045   2.060   2.083
  2.176   2.206   2.208   2.238   2.280   2.293   2.302   2.319
  2.335   2.342   2.355   2.400   2.411   2.448   2.459   2.509
  2.533   2.579   2.640   2.677   2.695   2.739   2.989   2.993
  3.107   3.108   3.229   3.240   3.547   3.566   3.798   3.805
  4.094   4.101   4.139   4.151   4.254   4.342   4.490   4.526
 --------------------------------------------------------------
 
          Ground-State Mulliken Net Atomic Charges

     Atom                 Charge (a.u.)    Spin (a.u.)
  --------------------------------------------------------
      1 S                     0.211206      -0.060627
      2 C                     0.041575       0.303979
      3 H                     0.251691      -0.014721
      4 C                    -0.338594      -0.029585
      5 H                     0.174395       0.002321
      6 C                     0.210308       0.121494
      7 H                     0.182496      -0.007741
      8 C                    -0.236830       0.184681
      9 C                    -0.228435       0.185041
     10 C                     0.207843       0.121463
     11 H                     0.182407      -0.007717
     12 C                    -0.337070      -0.029439
     13 H                     0.174436       0.002310
     14 C                     0.040743       0.303896
     15 H                     0.251650      -0.014714
     16 S                     0.212178      -0.060641
  --------------------------------------------------------
  Sum of atomic charges =     1.000000
  Sum of spin   charges =     1.000000

 -----------------------------------------------------------------
                    Cartesian Multipole Moments
 -----------------------------------------------------------------
    Charge (ESU x 10^10)
                 4.8032
    Dipole Moment (Debye)
         X      -3.0826      Y       0.6173      Z     -10.5056
       Tot      10.9659
    Quadrupole Moments (Debye-Ang)
        XX     -35.1941     XY       0.0058     YY     -64.3442
        XZ      24.9859     YZ       3.0640     ZZ     -30.0831
    Octopole Moments (Debye-Ang^2)
       XXX     109.0541    XXY      11.0889    XYY      34.6995
       YYY      26.6423    XXZ      26.7586    XYZ       0.7514
       YYZ     118.3677    XZZ     -47.7737    YZZ      -6.0320
       ZZZ     269.8956
    Hexadecapole Moments (Debye-Ang^3)
      XXXX   -1299.9697   XXXY     -55.0051   XXYY    -292.0152
      XYYY     -74.0108   YYYY    -338.4665   XXXZ    -366.0154
      XXYZ     -28.4736   XYYZ    -170.3803   YYYZ    -140.6416
      XXZZ    -232.3391   XYZZ       1.7161   YYZZ    -407.2888
      XZZZ    -265.8525   YZZZ     -60.6841   ZZZZ   -1954.3314
 -----------------------------------------------------------------
Archival summary:
1\1\nid00806\OPT\ProcedureUnspecified\BasisUnspecified\286(1+,2)\bwood\WedMay3102:27:462017WedMay3102:27:462017\0\\#,OPT,ProcedureUnspecified,BasisUnspecified,\\1,2\S\C,1,1.72048\H,2,1.0838,1,119.953\C,2,1.39253,1,112.927,3,177.791,0\H,4,1.08342,2,123.308,1,177.042,0\C,4,1.39656,2,112.421,1,-2.30536,0\H,6,1.08432,4,124.487,2,178.249,0\C,6,1.41464,4,113.359,2,-0.407651,0\C,8,1.43599,6,126.873,4,160.296,0\C,9,1.41452,8,126.844,6,-90,0\H,10,1.0843,9,122.158,8,-18.3549,0\C,10,1.39663,9,113.366,8,160.32,0\H,12,1.08345,10,124.259,9,-179.726,0\C,12,1.39251,10,112.423,9,-0.386668,0\H,14,1.08378,12,127.103,10,175.293,0\S,14,1.72082,12,112.908,10,-2.31901,0\\\@

 Total job time:  116.72s(wall), 115.49s(cpu) 
 Wed May 31 02:27:46 2017

        *************************************************************
        *                                                           *
        *  Thank you very much for using Q-Chem.  Have a nice day.  *
        *                                                           *
        *************************************************************


0 sent ACK to 0 
now end server 0 ... 
