srun -N 1 --ntasks-per-node 16 --cpus-per-task 4 --cpu_bind=cores --nodelist nid00808 /global/project/projectdirs/jcesr/qchem/qc44/cnl_qc441/dist/exe/qcprog.cori.haswell.exe .pt_n2_cation_170.0.in.26540.qcin.1 /global/cscratch1/sd/bwood/qchem/nx/qchem26540/
Process 0 of 16 is on nid00808 - thread support 0
Process 1 of 16 is on nid00808 - thread support 0
Process 2 of 16 is on nid00808 - thread support 0
Process 3 of 16 is on nid00808 - thread support 0
Process 4 of 16 is on nid00808 - thread support 0
Process 5 of 16 is on nid00808 - thread support 0
Process 6 of 16 is on nid00808 - thread support 0
initial socket setup ...start
Process 15 of 16 is on nid00808 - thread support 0
initial socket setup ...done 
now start server 0 ... 
nid00808 10.128.3
Q-Chem Developer Version! Running on 10.128.3.*
                  Welcome to Q-Chem
     A Quantum Leap Into The Future Of Chemistry


 Q-Chem 4.4, Q-Chem, Inc., Pleasanton, CA (2016)

 Y. Shao,  Z. Gan,  E. Epifanovsky,  A. T. B. Gilbert,  M. Wormit,  
 J. Kussmann,  A. W. Lange,  A. Behn,  J. Deng,  X. Feng,  D. Ghosh,  
 M. Goldey,  P. R. Horn,  L. D. Jacobson,  I. Kaliman,  F. Rob,  
 R. Z. Khaliullin,  T. Kus,  A. Landau,  J. Liu,  E. I. Proynov,  Y. M. Rhee,  
 R. M. Richard,  M. A. Rohrdanz,  R. P. Steele,  E. J. Sundstrom,  
 H. L. Woodcock III,  P. M. Zimmerman,  D. Zuev,  B. Albrecht,  E. Alguire,  
 B. Austin,  S. A. Baeppler,  G. J. O. Beran,  Y. A. Bernard,  
 E. J. Berquist,  K. Brandhorst,  K. B. Bravaya,  S. T. Brown,  D. Casanova,  
 C.-M. Chang,  Y. Chen,  S. H. Chien,  K. D. Closser,  M. P. Coons,  
 D. L. Crittenden,  S. Dasgupta,  M. Diedenhofen,  R. A. DiStasio Jr.,  
 H. Do,  A. D. Dutoi,  R. G. Edgar,  P.-T. Fang,  S. Fatehi,  Q. Feng,  
 L. Fusti-Molnar,  A. Ghysels,  A. Golubeva-Zadorozhnaya,  J. Gomes,  
 A. Gunina,  M. W. D. Hanson-Heine,  P. H. P. Harbach,  A. W. Hauser,  
 J. E. Herr,  E. G. Hohenstein,  Z. C. Holden,  K. Hui,  T.-C. Jagau,  H. Ji,  
 B. Kaduk,  K. Khistyaev,  Jaehoon Kim,  Jihan Kim,  R. A. King,  
 P. Klunzinger,  K. Koh,  D. Kosenkov,  T. Kowalczyk,  C. M. Krauter,  
 A. Kunitsa,  K. U. Lao,  A. Laurent,  K. V. Lawler,  J. Lee,  D. Lefrancois,  
 S. Lehtola,  S. V. Levchenko,  C. Y. Lin,  Y.-S. Lin,  F. Liu,  E. Livshits,  
 R. C. Lochan,  A. Luenser,  P. Manohar,  S. F. Manzer,  S.-P. Mao,  Y. Mao,  
 N. Mardirossian,  A. V. Marenich,  L. A. Martinez-Martinez,  S. A. Maurer,  
 N. J. Mayhall,  J.-M. Mewes,  A. F. Morrison,  K. Nanda,  T. S. Nguyen-Beck,  
 C. M. Oana,  R. Olivares-Amaya,  D. P. O'Neill,  J. A. Parkhill,  
 T. M. Perrine,  R. Peverati,  P. A. Pieniazek,  F. Plasser,  A. Prociuk,  
 D. R. Rehn,  E. Rosta,  N. J. Russ,  N. Sergueev,  S. M. Sharada,  
 S. Sharma,  D. W. Small,  A. Sodt,  T. Stauch,  T. Stein,  D. Stuck,  
 Y.-C. Su,  A. J. W. Thom,  T. Tsuchimochi,  L. Vogt,  O. Vydrov,  T. Wang,  
 M. A. Watson,  J. Wenzel,  A. White,  C. F. Williams,  V. Vanovschi,  
 K. Yao,  S. Yeganeh,  S. R. Yost,  Z.-Q. You,  I. Y. Zhang,  X. Zhang,  
 Y. Zhao,  B. R. Brooks,  G. K. L. Chan,  D. M. Chipman,  C. J. Cramer,  
 W. A. Goddard III,  M. S. Gordon,  W. J. Hehre,  A. Klamt,  
 H. F. Schaefer III,  M. W. Schmidt,  C. D. Sherrill,  D. G. Truhlar,  
 A. Warshel,  X. Xu,  A. Aspuru-Guzik,  R. Baer,  A. T. Bell,  N. A. Besley,  
 J.-D. Chai,  A. Dreuw,  B. D. Dunietz,  T. R. Furlani,  S. R. Gwaltney,  
 C.-P. Hsu,  Y. Jung,  J. Kong,  D. S. Lambrecht,  W. Liang,  C. Ochsenfeld,  
 V. A. Rassolov,  L. V. Slipchenko,  J. E. Subotnik,  T. Van Voorhis,  
 J. M. Herbert,  A. I. Krylov,  P. M. W. Gill,  M. Head-Gordon

 Contributors to earlier versions of Q-Chem not listed above: 
 R. D. Adamson,  J. Baker,  E. F. C. Byrd,  A. K. Chakraborty,  C.-L. Cheng,  
 H. Dachsel,  R. J. Doerksen,  G. Hawkins,  A. Heyden,  S. Hirata,  
 G. Kedziora,  F. J. Keil,  C. Kelley,  P. P. Korambath,  W. Kurlancheek,  
 A. M. Lee,  M. S. Lee,  D. Liotard,  I. Lotan,  P. E. Maslen,  N. Nair,  
 D. Neuhauser,  R. Olson,  B. Peters,  J. Ritchie,  N. E. Schultz,  
 N. Shenvi,  A. C. Simmonett,  K. S. Thanthiriwatte,  Q. Wu,  W. Zhang

 Please cite Q-Chem as follows:
 Y. Shao et al., Mol. Phys. 113, 184-215 (2015)
 DOI: 10.1080/00268976.2014.952696

 Q-Chem 4.4.2 for Intel X86 EM64T Linux

 Parts of Q-Chem use Armadillo 5.200.1 (Boston Tea Smuggler).
 http://arma.sourceforge.net/

 Q-Chem begins on Wed May 31 02:25:50 2017  

Host: nid00776
0

     Scratch files written to /global/cscratch1/sd/bwood/qchem/nx/qchem26540.0//
 Parallel job on  16  processors

Checking the input file for inconsistencies... 	...done.

--------------------------------------------------------------
User input:
--------------------------------------------------------------
$molecule
 1  2
 S           0.00238887        0.06077275        0.00183269
 C           1.73707619        0.03315849        0.00323229
 H           2.27612737        0.05289032        0.94042557
 C           2.24169204       -0.01546201       -1.26965798
 H           3.30285780       -0.04005365       -1.48972496
 C           1.22479222       -0.01612968       -2.26811464
 H           1.42674790       -0.02650987       -3.33334501
 C          -0.05393771        0.02880388       -1.75170966
 C          -1.32450815        0.04889988       -2.45636342
 C          -2.60033239       -0.09279835       -1.95016924
 H          -2.80066592       -0.22849695       -0.89315910
 C          -3.61876400       -0.00975265       -2.94353986
 H          -4.67832790       -0.09015457       -2.72916980
 C          -3.11827342        0.19626375       -4.20219017
 H          -3.65976074        0.30525913       -5.13191742
 S          -1.38526871        0.27494170       -4.19588780
$end


$rem
         jobtype = opt
        exchange = b3lyp
           basis = 6-31++g**
  max_scf_cycles = 150
      mem_static = 775
       mem_total = 7750
      sym_ignore = true
        symmetry = false
          thresh = 12
$end


$opt
CONSTRAINT
tors 6 8 9 10 170.0
ENDCONSTRAINT
$end

--------------------------------------------------------------
 ----------------------------------------------------------------
             Standard Nuclear Orientation (Angstroms)
    I     Atom           X                Y                Z
 ----------------------------------------------------------------
    1      S       0.0023888700     0.0607727500     0.0018326900
    2      C       1.7370761900     0.0331584900     0.0032322900
    3      H       2.2761273700     0.0528903200     0.9404255700
    4      C       2.2416920400    -0.0154620100    -1.2696579800
    5      H       3.3028578000    -0.0400536500    -1.4897249600
    6      C       1.2247922200    -0.0161296800    -2.2681146400
    7      H       1.4267479000    -0.0265098700    -3.3333450100
    8      C      -0.0539377100     0.0288038800    -1.7517096600
    9      C      -1.3245081500     0.0488998800    -2.4563634200
   10      C      -2.6003323900    -0.0927983500    -1.9501692400
   11      H      -2.8006659200    -0.2284969500    -0.8931591000
   12      C      -3.6187640000    -0.0097526500    -2.9435398600
   13      H      -4.6783279000    -0.0901545700    -2.7291698000
   14      C      -3.1182734200     0.1962637500    -4.2021901700
   15      H      -3.6597607400     0.3052591300    -5.1319174200
   16      S      -1.3852687100     0.2749417000    -4.1958878000
 ----------------------------------------------------------------
 Nuclear Repulsion Energy =   629.2152477353 hartrees
 There are       43 alpha and       42 beta electrons
 Requested basis set is 6-31++G(d,p)
 There are 76 shells and 234 basis functions

 Total QAlloc Memory Limit   7750 MB
 Mega-Array Size       758 MB
 MEM_STATIC part       775 MB
 A cutoff of  1.0D-12 yielded   2529 shell pairs
 There are     24905 function pairs

 Q-Chem warning in module /project/projectdirs/jcesr/qchem/qc44/cnl_qc441/compile/cori/qc_src/libqints/qchem/aobasis.C, line 68:

 Using reconstructed effective core potential

 
 -------------------------------------------------------
 OpenMP Integral Computing Module                       
 Release: version 1.0, May 2013, Q-Chem Inc. Pittsburgh 
 -------------------------------------------------------
 Integral Job Info:
 Integral job number is                      11
 Integral operator is                         1
 short-range coefficients                     0
 long-range coefficients              100000000
 Omega coefficients                           0
 if combine SR and LR in K                    0
 Integral screening is                        0
 Integral computing path is                   2
 max size of driver memory is            800000
 size of driver memory is                593474
 size of scratch memory is             15166112
 max col of scratch BK array               1296
 max len of scratch array in speh3          155
 max len of scratch index in speh4           18
 max int batch size is                      520
 min int batch size is                       52
 fixed nKL is                                52
 max L of basis functions is                  2
 order of int derivative is                   0
 number of shells is                         76
 number of basis is                         234
 number of cartesian basis is               234
 number of contracted shell pairs          2529
 number of primitive shell pairs           8260
 maxK2 (contraction) of shell pair           36
 max number of K2 of shell pair               1
 max number of CS2 of shell pair            266
 max number of PS2 of shell pair           1524
 mem total for path MDJ                   52408
 -------------------------------------------------------
 Smallest overlap matrix eigenvalue = 8.67E-07
 Linear dependence detected in AO basis
 Number of orthogonalized atomic orbitals = 233
 Maximum deviation from orthogonality = 7.923E-11

 Scale SEOQF with 1.000000e-01/1.000000e-01/1.000000e-02

 Standard Electronic Orientation quadrupole field applied
 Nucleus-field energy     =     0.0000000057 hartrees
 Guess from superposition of atomic densities
 Warning:  Energy on first SCF cycle will be non-variational
 An unrestricted hybrid HF-DFT SCF calculation will be
 performed using Pulay DIIS extrapolation
 Exchange:     0.2000 Hartree-Fock + 0.0800 Slater + 0.7200 B88
 Correlation:  0.1900 VWN1RPA + 0.8100 LYP
 Using SG-1 standard quadrature grid
 SCF converges when DIIS error is below 1.0E-08
 Inaccurate integrated density:
   Number of electrons =    85
   Numerical integral  =    86.000504223788
   Relative error      =     1.1770637927 %
 ---------------------------------------
  Cycle       Energy         DIIS Error
 ---------------------------------------
    1   -1107.1849321347      4.42E-02
    2   -1104.4565750655      3.69E-03
    3   -1104.2943866423      5.73E-03
    4   -1104.5596017094      8.03E-04
    5   -1104.5621141763      5.81E-04
    6   -1104.5648991976      1.51E-04
    7   -1104.5651385306      5.41E-05
    8   -1104.5651958693      1.62E-05
    9   -1104.5652318313      9.96E-06
   10   -1104.5652462409      6.73E-06
   11   -1104.5652500420      3.03E-06
   12   -1104.5652509633      1.01E-06
   13   -1104.5652510608      5.05E-07
   14   -1104.5652510725      1.80E-07
   15   -1104.5652510748      5.75E-08
   16   -1104.5652510748      3.79E-08
   17   -1104.5652510745      8.16E-09 Convergence criterion met
 ---------------------------------------
 <S^2> = 0.7641
 SCF time:  CPU 11.40 s  wall 11.11 s
 SCF   energy in the final basis set = -1104.5652510745
 Total energy in the final basis set = -1104.5652510745
 
 --------------------------------------------------------------
 
                    Orbital Energies (a.u.)
 --------------------------------------------------------------
 
 Alpha MOs
 -- Occupied --
-89.094 -89.094 -10.435 -10.434 -10.418 -10.418 -10.394 -10.394
-10.382 -10.382  -8.154  -8.154  -6.118  -6.118  -6.114  -6.114
 -6.110  -6.110  -1.088  -1.064  -0.960  -0.930  -0.915  -0.894
 -0.787  -0.760  -0.728  -0.711  -0.702  -0.654  -0.598  -0.595
 -0.595  -0.583  -0.582  -0.558  -0.554  -0.529  -0.515  -0.474
 -0.439  -0.431  -0.404
 -- Virtual --
 -0.242  -0.178  -0.155  -0.153  -0.131  -0.125  -0.117  -0.108
 -0.101  -0.099  -0.093  -0.092  -0.078  -0.075  -0.068  -0.055
 -0.051  -0.040  -0.036  -0.030  -0.021  -0.017  -0.011  -0.008
 -0.007   0.004   0.010   0.011   0.016   0.022   0.023   0.025
  0.029   0.035   0.036   0.039   0.042   0.047   0.057   0.058
  0.063   0.074   0.078   0.080   0.084   0.101   0.101   0.106
  0.115   0.117   0.126   0.137   0.147   0.153   0.159   0.171
  0.182   0.186   0.205   0.212   0.217   0.237   0.243   0.246
  0.298   0.314   0.357   0.361   0.380   0.393   0.415   0.434
  0.443   0.458   0.475   0.476   0.483   0.485   0.507   0.528
  0.541   0.548   0.563   0.564   0.572   0.576   0.612   0.623
  0.645   0.647   0.654   0.676   0.698   0.755   0.776   0.777
  0.783   0.788   0.797   0.810   0.821   0.837   0.840   0.851
  0.863   0.872   0.912   0.935   0.940   0.955   0.982   0.997
  1.006   1.015   1.044   1.082   1.092   1.150   1.161   1.161
  1.173   1.180   1.189   1.295   1.301   1.309   1.368   1.432
  1.484   1.505   1.539   1.617   1.679   1.700   1.713   1.739
  1.741   1.760   1.773   1.833   1.878   1.890   1.893   1.941
  1.989   1.996   2.000   2.038   2.059   2.072   2.157   2.193
  2.199   2.244   2.270   2.271   2.301   2.321   2.333   2.354
  2.365   2.384   2.415   2.434   2.496   2.518   2.541   2.577
  2.686   2.692   2.754   2.757   2.971   3.030   3.105   3.113
  3.228   3.256   3.549   3.570   3.800   3.810   4.045   4.109
  4.128   4.138   4.223   4.348   4.479   4.533
 
 Beta MOs
 -- Occupied --
-89.094 -89.094 -10.433 -10.432 -10.414 -10.414 -10.391 -10.391
-10.382 -10.382  -8.154  -8.154  -6.118  -6.118  -6.114  -6.114
 -6.111  -6.111  -1.082  -1.058  -0.952  -0.927  -0.913  -0.884
 -0.782  -0.756  -0.723  -0.709  -0.700  -0.651  -0.595  -0.594
 -0.582  -0.580  -0.579  -0.552  -0.540  -0.528  -0.514  -0.445
 -0.434  -0.428
 -- Virtual --
 -0.339  -0.222  -0.162  -0.153  -0.150  -0.124  -0.117  -0.115
 -0.100  -0.098  -0.095  -0.092  -0.091  -0.077  -0.074  -0.067
 -0.054  -0.049  -0.040  -0.035  -0.029  -0.019  -0.016  -0.010
 -0.007  -0.007   0.005   0.011   0.012   0.016   0.023   0.024
  0.026   0.031   0.036   0.037   0.042   0.042   0.048   0.057
  0.060   0.065   0.075   0.081   0.082   0.085   0.101   0.102
  0.106   0.116   0.119   0.126   0.138   0.148   0.155   0.160
  0.172   0.184   0.187   0.206   0.214   0.219   0.238   0.245
  0.250   0.299   0.316   0.357   0.361   0.382   0.394   0.416
  0.437   0.444   0.460   0.485   0.486   0.488   0.491   0.508
  0.530   0.543   0.554   0.565   0.566   0.581   0.582   0.614
  0.625   0.648   0.650   0.660   0.682   0.700   0.757   0.778
  0.781   0.787   0.789   0.799   0.811   0.823   0.838   0.842
  0.852   0.865   0.874   0.913   0.937   0.941   0.957   0.986
  1.001   1.010   1.020   1.047   1.090   1.095   1.152   1.166
  1.167   1.181   1.184   1.197   1.298   1.309   1.315   1.371
  1.436   1.496   1.518   1.549   1.621   1.686   1.702   1.716
  1.742   1.747   1.761   1.778   1.838   1.881   1.895   1.902
  1.947   2.001   2.006   2.008   2.042   2.067   2.081   2.163
  2.196   2.202   2.246   2.277   2.279   2.302   2.324   2.339
  2.357   2.368   2.390   2.419   2.438   2.498   2.523   2.547
  2.580   2.689   2.696   2.755   2.759   2.972   3.032   3.106
  3.113   3.229   3.258   3.551   3.571   3.801   3.810   4.051
  4.116   4.132   4.141   4.230   4.355   4.483   4.537
 --------------------------------------------------------------
 
          Ground-State Mulliken Net Atomic Charges

     Atom                 Charge (a.u.)    Spin (a.u.)
  --------------------------------------------------------
      1 S                    -0.052598      -0.048521
      2 C                     0.141757       0.308707
      3 H                     0.258896      -0.015007
      4 C                    -0.355017      -0.022332
      5 H                     0.177381      -0.000115
      6 C                     0.481502       0.142706
      7 H                     0.157238      -0.009595
      8 C                    -0.308273       0.144150
      9 C                    -0.309340       0.144240
     10 C                     0.478820       0.142533
     11 H                     0.157370      -0.009581
     12 C                    -0.353169      -0.022135
     13 H                     0.177393      -0.000123
     14 C                     0.141211       0.308451
     15 H                     0.258907      -0.015002
     16 S                    -0.052078      -0.048374
  --------------------------------------------------------
  Sum of atomic charges =     1.000000
  Sum of spin   charges =     1.000000

 -----------------------------------------------------------------
                    Cartesian Multipole Moments
 -----------------------------------------------------------------
    Charge (ESU x 10^10)
                 4.8032
    Dipole Moment (Debye)
         X      -3.3130      Y       0.2454      Z     -10.1024
       Tot      10.6346
    Quadrupole Moments (Debye-Ang)
        XX     -29.6502     XY      -0.4388     YY     -73.2142
        XZ      22.8290     YZ      -1.7457     ZZ     -25.9335
    Octopole Moments (Debye-Ang^2)
       XXX      64.6048    XXY      -4.1414    XYY      50.0790
       YYY     -15.4883    XXZ      40.2340    XYZ       5.7074
       YYZ     153.5158    XZZ     -48.5095    YZZ       5.6688
       ZZZ     253.3385
    Hexadecapole Moments (Debye-Ang^3)
      XXXX   -1133.3659   XXXY      17.9251   XXYY    -319.7423
      XYYY      20.9373   YYYY     -94.9817   XXXZ    -321.7455
      XXYZ       3.0797   XYYZ    -234.3378   YYYZ      57.4367
      XXZZ    -340.2803   XYZZ     -25.5136   YYZZ    -535.0274
      XZZZ    -175.6283   YZZZ      -2.0531   ZZZZ   -2086.3564
 -----------------------------------------------------------------
 Calculating analytic gradient of the SCF energy
 Gradient of SCF Energy
            1           2           3           4           5           6
    1   0.0002170   0.0195630  -0.0005660   0.0021933   0.0004488  -0.0357572
    2  -0.0000494   0.0007102  -0.0001879   0.0000715   0.0003332  -0.0022736
    3  -0.0134943  -0.0090235  -0.0011154   0.0320635   0.0005639   0.0015449
            7           8           9          10          11          12
    1  -0.0017587   0.0413890  -0.0412306   0.0358307   0.0016233  -0.0022580
    2   0.0011585   0.0000374  -0.0011738  -0.0011882   0.0012145   0.0036887
    3  -0.0001418   0.0005413  -0.0004689  -0.0018193   0.0003013  -0.0318076
           13          14          15          16
    1  -0.0004517  -0.0195256   0.0005592  -0.0002764
    2   0.0003994  -0.0008713  -0.0002780  -0.0015912
    3  -0.0005263   0.0090725   0.0010741   0.0132356
 Max gradient component =       4.139E-02
 RMS gradient           =       1.396E-02
 Gradient time:  CPU 1.94 s  wall 1.92 s
 Geometry Optimization Parameters
   NAtoms,    NIC,     NZ,  NCons,   NDum,   NFix, NCnnct, MaxDiis
       16     111       0       1       0       0       0       0


** CONSTRAINED OPTIMIZATION IN DELOCALIZED INTERNAL COORDINATES **
   Searching for a Minimum

   Optimization Cycle:   1

                       Coordinates (Angstroms)
     ATOM                X               Y               Z
      1  S         0.0023888700    0.0607727500    0.0018326900
      2  C         1.7370761900    0.0331584900    0.0032322900
      3  H         2.2761273700    0.0528903200    0.9404255700
      4  C         2.2416920400   -0.0154620100   -1.2696579800
      5  H         3.3028578000   -0.0400536500   -1.4897249600
      6  C         1.2247922200   -0.0161296800   -2.2681146400
      7  H         1.4267479000   -0.0265098700   -3.3333450100
      8  C        -0.0539377100    0.0288038800   -1.7517096600
      9  C        -1.3245081500    0.0488998800   -2.4563634200
     10  C        -2.6003323900   -0.0927983500   -1.9501692400
     11  H        -2.8006659200   -0.2284969500   -0.8931591000
     12  C        -3.6187640000   -0.0097526500   -2.9435398600
     13  H        -4.6783279000   -0.0901545700   -2.7291698000
     14  C        -3.1182734200    0.1962637500   -4.2021901700
     15  H        -3.6597607400    0.3052591300   -5.1319174200
     16  S        -1.3852687100    0.2749417000   -4.1958878000
   Point Group: c1    Number of degrees of freedom:    42


   Energy is  -1104.565251075

              Constraints and their Current Values
                                        Value     Constraint
   Dihedral:        6   8   9  10      170.000      170.000

 Attempting to Generate Delocalized Internal Coordinates

 41 Hessian modes will be used to form the next step
  Hessian Eigenvalues:
     0.045000    0.045000    0.045000    0.045000    0.045000    0.045000
     0.045002    0.045002    0.045003    0.045004    0.045011    0.045012
     0.159943    0.159949    0.159991    0.159992    0.160000    0.160000
     0.221282    0.221282    0.237835    0.237839    0.250000    0.250000
     0.294264    0.294663    0.312518    0.312618    0.354736    0.354850
     0.355125    0.355132    0.358226    0.358329    0.378510    0.404854
     0.404909    0.463547    0.463616    0.497922    0.497945

 Minimum Search - Taking Simple RFO Step
 Searching for Lamda that Minimizes Along All modes
 Value Taken    Lamda =  -0.01195401
 Step Taken.  Stepsize is  0.184471

                             Maximum     Tolerance    Cnvgd?
         Gradient           0.031682      0.000300      NO
         Displacement       0.092111      0.001200      NO
         Energy change     *********      0.000001      NO


 New Cartesian Coordinates Obtained by Inverse Iteration

 Displacement from previous Coordinates is:  0.356304
 ----------------------------------------------------------------
             Standard Nuclear Orientation (Angstroms)
    I     Atom           X                Y                Z
 ----------------------------------------------------------------
    1      S      -0.0465422576     0.0648254474     0.0120628781
    2      C       1.6793680654     0.0202458389    -0.0230051269
    3      H       2.2209013050     0.0247369343     0.9150199378
    4      C       2.2133793531    -0.0157773898    -1.3074812116
    5      H       3.2755363877    -0.0498592362    -1.5190886421
    6      C       1.2234717963     0.0008548515    -2.2933244261
    7      H       1.4347331143    -0.0105419720    -3.3570321425
    8      C      -0.0746027035     0.0477753075    -1.7530401084
    9      C      -1.3048366731     0.0685063820    -2.4525338645
   10      C      -2.5999010148    -0.0780569388    -1.9230262380
   11      H      -2.8091206925    -0.2151194279    -0.8676802939
   12      C      -3.5905392925    -0.0135216450    -2.9061874710
   13      H      -4.6508770728    -0.1028802297    -2.7016577314
   14      C      -3.0598898112     0.1822853925    -4.1775615286
   15      H      -3.6030266632     0.2758824276    -5.1100493256
   16      S      -1.3362103906     0.2822764276    -4.2048732154
 ----------------------------------------------------------------
 Nuclear Repulsion Energy =   630.7817940100 hartrees
 There are       43 alpha and       42 beta electrons
 Applying Cartesian multipole field
    Component          Value
    ---------          -----
     (2,0,0)        1.00000E-11
     (0,2,0)        2.00000E-11
     (0,0,2)       -3.00000E-12
 Nucleus-field energy     =     0.0000000054 hartrees
 Requested basis set is 6-31++G(d,p)
 There are 76 shells and 234 basis functions
 A cutoff of  1.0D-12 yielded   2541 shell pairs
 There are     25061 function pairs

 Q-Chem warning in module /project/projectdirs/jcesr/qchem/qc44/cnl_qc441/compile/cori/qc_src/libqints/qchem/aobasis.C, line 68:

 Using reconstructed effective core potential

 Smallest overlap matrix eigenvalue = 6.66E-07
 Linear dependence detected in AO basis
 Number of orthogonalized atomic orbitals = 233
 Maximum deviation from orthogonality = 6.950E-11
 Guess MOs from SCF MO coefficient file
 Reading MOs from coefficient file
 Reading MOs from coefficient file
 An unrestricted hybrid HF-DFT SCF calculation will be
 performed using Pulay DIIS extrapolation
 Exchange:     0.2000 Hartree-Fock + 0.0800 Slater + 0.7200 B88
 Correlation:  0.1900 VWN1RPA + 0.8100 LYP
 Using SG-1 standard quadrature grid
 SCF converges when DIIS error is below 1.0E-08
 Geometry optimization detected.  Setting ReadMinima to 0
 Setting SaveMinima to 0
 ---------------------------------------
  Cycle       Energy         DIIS Error
 ---------------------------------------
    1   -1104.5676291693      2.08E-03
    2   -1104.5704094169      2.56E-04
    3   -1104.5699757965      3.62E-04
    4   -1104.5709602047      7.13E-05
    5   -1104.5709891654      3.66E-05
    6   -1104.5710005864      5.31E-06
    7   -1104.5710014337      1.75E-06
    8   -1104.5710017180      6.53E-07
    9   -1104.5710018228      4.56E-07
   10   -1104.5710018531      2.87E-07
   11   -1104.5710018630      1.18E-07
   12   -1104.5710018651      8.62E-08
   13   -1104.5710018661      3.17E-08
   14   -1104.5710018664      2.36E-08
   15   -1104.5710018670      4.24E-09 Convergence criterion met
 ---------------------------------------
 <S^2> = 0.7671
 SCF time:  CPU 10.17 s  wall 9.66 s
 SCF   energy in the final basis set = -1104.5710018670
 Total energy in the final basis set = -1104.5710018670
 
 --------------------------------------------------------------
 
                    Orbital Energies (a.u.)
 --------------------------------------------------------------
 
 Alpha MOs
 -- Occupied --
-89.098 -89.098 -10.431 -10.430 -10.418 -10.418 -10.392 -10.392
-10.380 -10.380  -8.157  -8.157  -6.121  -6.121  -6.117  -6.117
 -6.114  -6.114  -1.086  -1.060  -0.957  -0.935  -0.921  -0.881
 -0.787  -0.759  -0.723  -0.714  -0.703  -0.647  -0.594  -0.593
 -0.588  -0.584  -0.581  -0.555  -0.551  -0.538  -0.523  -0.471
 -0.444  -0.435  -0.393
 -- Virtual --
 -0.247  -0.179  -0.163  -0.157  -0.129  -0.125  -0.113  -0.107
 -0.101  -0.100  -0.092  -0.091  -0.078  -0.075  -0.066  -0.053
 -0.051  -0.040  -0.034  -0.028  -0.020  -0.015  -0.012  -0.009
 -0.008   0.005   0.010   0.010   0.016   0.022   0.023   0.024
  0.030   0.035   0.037   0.040   0.043   0.047   0.055   0.059
  0.071   0.073   0.080   0.082   0.090   0.101   0.103   0.105
  0.109   0.123   0.124   0.137   0.144   0.151   0.156   0.174
  0.183   0.185   0.207   0.211   0.213   0.238   0.239   0.243
  0.303   0.315   0.356   0.359   0.385   0.396   0.412   0.430
  0.445   0.465   0.476   0.478   0.482   0.484   0.507   0.526
  0.545   0.547   0.561   0.574   0.574   0.579   0.610   0.617
  0.650   0.651   0.656   0.678   0.699   0.752   0.771   0.781
  0.782   0.785   0.798   0.816   0.820   0.835   0.842   0.846
  0.863   0.870   0.909   0.928   0.932   0.963   0.981   1.005
  1.016   1.017   1.051   1.081   1.096   1.146   1.164   1.167
  1.174   1.177   1.191   1.293   1.293   1.316   1.370   1.435
  1.482   1.505   1.534   1.640   1.678   1.680   1.729   1.732
  1.754   1.783   1.784   1.846   1.879   1.889   1.893   1.943
  1.982   2.003   2.008   2.039   2.065   2.076   2.151   2.194
  2.201   2.257   2.266   2.270   2.299   2.325   2.328   2.348
  2.363   2.378   2.405   2.431   2.496   2.519   2.545   2.580
  2.686   2.693   2.755   2.760   2.970   3.031   3.105   3.112
  3.225   3.252   3.552   3.573   3.799   3.807   4.048   4.094
  4.135   4.141   4.228   4.347   4.487   4.540
 
 Beta MOs
 -- Occupied --
-89.098 -89.098 -10.429 -10.428 -10.414 -10.414 -10.390 -10.390
-10.380 -10.380  -8.157  -8.157  -6.121  -6.121  -6.117  -6.117
 -6.114  -6.114  -1.081  -1.055  -0.950  -0.932  -0.918  -0.871
 -0.782  -0.755  -0.719  -0.711  -0.702  -0.644  -0.593  -0.585
 -0.582  -0.579  -0.578  -0.549  -0.538  -0.536  -0.522  -0.443
 -0.439  -0.432
 -- Virtual --
 -0.327  -0.226  -0.164  -0.160  -0.154  -0.125  -0.116  -0.111
 -0.100  -0.100  -0.095  -0.091  -0.090  -0.077  -0.074  -0.065
 -0.053  -0.049  -0.039  -0.033  -0.027  -0.018  -0.014  -0.011
 -0.008  -0.008   0.007   0.011   0.012   0.017   0.022   0.024
  0.025   0.032   0.035   0.038   0.042   0.043   0.048   0.055
  0.061   0.072   0.075   0.082   0.084   0.092   0.101   0.103
  0.105   0.111   0.124   0.124   0.138   0.144   0.152   0.157
  0.175   0.185   0.186   0.208   0.213   0.215   0.239   0.242
  0.247   0.304   0.316   0.356   0.359   0.387   0.398   0.413
  0.432   0.446   0.467   0.484   0.485   0.490   0.493   0.508
  0.528   0.547   0.551   0.562   0.577   0.583   0.585   0.611
  0.619   0.655   0.655   0.660   0.683   0.701   0.754   0.776
  0.782   0.787   0.787   0.800   0.817   0.823   0.836   0.844
  0.848   0.865   0.872   0.910   0.930   0.933   0.964   0.985
  1.010   1.020   1.021   1.055   1.088   1.099   1.148   1.170
  1.172   1.180   1.183   1.200   1.296   1.302   1.322   1.374
  1.439   1.494   1.520   1.545   1.646   1.682   1.687   1.730
  1.734   1.760   1.785   1.788   1.851   1.882   1.893   1.902
  1.947   1.992   2.016   2.016   2.042   2.074   2.084   2.157
  2.198   2.203   2.259   2.273   2.278   2.300   2.329   2.335
  2.350   2.368   2.384   2.410   2.434   2.499   2.524   2.550
  2.583   2.689   2.698   2.757   2.762   2.971   3.033   3.105
  3.112   3.226   3.254   3.554   3.574   3.799   3.807   4.054
  4.101   4.138   4.144   4.235   4.354   4.491   4.544
 --------------------------------------------------------------
 
          Ground-State Mulliken Net Atomic Charges

     Atom                 Charge (a.u.)    Spin (a.u.)
  --------------------------------------------------------
      1 S                    -0.029903      -0.047831
      2 C                     0.094090       0.327393
      3 H                     0.254281      -0.016310
      4 C                    -0.312421      -0.033620
      5 H                     0.176101       0.000593
      6 C                     0.438808       0.149077
      7 H                     0.154959      -0.009906
      8 C                    -0.275982       0.130646
      9 C                    -0.275641       0.130600
     10 C                     0.437201       0.148999
     11 H                     0.155102      -0.009902
     12 C                    -0.310939      -0.033478
     13 H                     0.176154       0.000590
     14 C                     0.093469       0.327186
     15 H                     0.254254      -0.016309
     16 S                    -0.029534      -0.047726
  --------------------------------------------------------
  Sum of atomic charges =     1.000000
  Sum of spin   charges =     1.000000

 -----------------------------------------------------------------
                    Cartesian Multipole Moments
 -----------------------------------------------------------------
    Charge (ESU x 10^10)
                 4.8032
    Dipole Moment (Debye)
         X      -3.3122      Y       0.2315      Z     -10.1029
       Tot      10.6345
    Quadrupole Moments (Debye-Ang)
        XX     -31.0119     XY      -0.3627     YY     -73.2188
        XZ      21.3178     YZ      -1.7577     ZZ     -25.6186
    Octopole Moments (Debye-Ang^2)
       XXX      67.4863    XXY      -5.5236    XYY      50.1438
       YYY     -16.4122    XXZ      45.1283    XYZ       4.8134
       YYZ     153.5247    XZZ     -42.4364    YZZ       5.0510
       ZZZ     251.2072
    Hexadecapole Moments (Debye-Ang^3)
      XXXX   -1117.0130   XXXY      20.7747   XXYY    -313.0823
      XYYY      20.8430   YYYY     -95.0025   XXXZ    -330.0982
      XXYZ       7.5893   XYYZ    -228.1325   YYYZ      59.5353
      XXZZ    -360.8278   XYZZ     -21.3285   YYZZ    -533.9368
      XZZZ    -187.2489   YZZZ       2.2094   ZZZZ   -2072.1725
 -----------------------------------------------------------------
 Calculating analytic gradient of the SCF energy
 Gradient of SCF Energy
            1           2           3           4           5           6
    1  -0.0094409   0.0035026  -0.0010732   0.0009960  -0.0000904  -0.0073224
    2   0.0007052   0.0005659  -0.0000947  -0.0002303   0.0001561  -0.0023054
    3   0.0024820  -0.0065511   0.0001914   0.0050871  -0.0016286  -0.0032218
            7           8           9          10          11          12
    1   0.0010900   0.0149729  -0.0150368   0.0074552  -0.0011448  -0.0010217
    2   0.0006960   0.0006195   0.0004356  -0.0025090   0.0006556   0.0003497
    3  -0.0002234   0.0027865  -0.0026747   0.0029550   0.0002938  -0.0050573
           13          14          15          16
    1   0.0000906  -0.0034512   0.0010713   0.0094030
    2  -0.0000134  -0.0002465  -0.0000275   0.0012432
    3   0.0016317   0.0065976  -0.0002072  -0.0024610
 Max gradient component =       1.504E-02
 RMS gradient           =       4.503E-03
 Gradient time:  CPU 1.90 s  wall 1.90 s
 Geometry Optimization Parameters
   NAtoms,    NIC,     NZ,  NCons,   NDum,   NFix, NCnnct, MaxDiis
       16     111       0       1       0       0       0       0

 Cartesian Hessian Update
 Hessian Updated using BFGS Update


** CONSTRAINED OPTIMIZATION IN DELOCALIZED INTERNAL COORDINATES **
   Searching for a Minimum

   Optimization Cycle:   2

                       Coordinates (Angstroms)
     ATOM                X               Y               Z
      1  S        -0.0465422576    0.0648254474    0.0120628781
      2  C         1.6793680654    0.0202458389   -0.0230051269
      3  H         2.2209013050    0.0247369343    0.9150199378
      4  C         2.2133793531   -0.0157773898   -1.3074812116
      5  H         3.2755363877   -0.0498592362   -1.5190886421
      6  C         1.2234717963    0.0008548515   -2.2933244261
      7  H         1.4347331143   -0.0105419720   -3.3570321425
      8  C        -0.0746027035    0.0477753075   -1.7530401084
      9  C        -1.3048366731    0.0685063820   -2.4525338645
     10  C        -2.5999010148   -0.0780569388   -1.9230262380
     11  H        -2.8091206925   -0.2151194279   -0.8676802939
     12  C        -3.5905392925   -0.0135216450   -2.9061874710
     13  H        -4.6508770728   -0.1028802297   -2.7016577314
     14  C        -3.0598898112    0.1822853925   -4.1775615286
     15  H        -3.6030266632    0.2758824276   -5.1100493256
     16  S        -1.3362103906    0.2822764276   -4.2048732154
   Point Group: c1    Number of degrees of freedom:    42


   Energy is  -1104.571001867

              Constraints and their Current Values
                                        Value     Constraint
   Dihedral:        6   8   9  10      170.000      170.000
 Hessian Updated using BFGS Update

 40 Hessian modes will be used to form the next step
  Hessian Eigenvalues:
     0.044424    0.045000    0.045000    0.045000    0.045000    0.045002
     0.045002    0.045004    0.045008    0.045009    0.045012    0.159393
     0.159946    0.159992    0.159993    0.160000    0.161036    0.221030
     0.221282    0.237837    0.245393    0.250000    0.271958    0.293698
     0.294463    0.304217    0.312568    0.354669    0.354819    0.355104
     0.355129    0.358174    0.358302    0.382924    0.404881    0.427039
     0.443473    0.463582    0.486461    0.497933

 Minimum Search - Taking Simple RFO Step
 Searching for Lamda that Minimizes Along All modes
 Value Taken    Lamda =  -0.00147047
 Step Taken.  Stepsize is  0.084584

                             Maximum     Tolerance    Cnvgd?
         Gradient           0.011194      0.000300      NO
         Displacement       0.039049      0.001200      NO
         Energy change     -0.005751      0.000001      NO


 New Cartesian Coordinates Obtained by Inverse Iteration

 Displacement from previous Coordinates is:  0.152382
 ----------------------------------------------------------------
             Standard Nuclear Orientation (Angstroms)
    I     Atom           X                Y                Z
 ----------------------------------------------------------------
    1      S      -0.0256405944     0.0636232961     0.0161889412
    2      C       1.6922431201     0.0076386313    -0.0125185301
    3      H       2.2406448946    -0.0012394439     0.9223413691
    4      C       2.2208312573    -0.0160800949    -1.3042507227
    5      H       3.2834653550    -0.0577953006    -1.5100891553
    6      C       1.2315502107     0.0160050606    -2.2855724567
    7      H       1.4404358148     0.0043308863    -3.3491649492
    8      C      -0.0790156431     0.0635119799    -1.7519200047
    9      C      -1.3008821494     0.0846964299    -2.4519365465
   10      C      -2.6084331719    -0.0618552703    -1.9290430040
   11      H      -2.8149092870    -0.1993320395    -0.8738045240
   12      C      -3.5980189669    -0.0136878306    -2.9094500759
   13      H      -4.6585769146    -0.1103417470    -2.7114410255
   14      C      -3.0725358914     0.1705508339    -4.1894568448
   15      H      -3.6221265868     0.2500358559    -5.1203182959
   16      S      -1.3571879970     0.2815709229    -4.2090226850
 ----------------------------------------------------------------
 Nuclear Repulsion Energy =   629.7283247424 hartrees
 There are       43 alpha and       42 beta electrons
 Applying Cartesian multipole field
    Component          Value
    ---------          -----
     (2,0,0)        1.00000E-11
     (0,2,0)        2.00000E-11
     (0,0,2)       -3.00000E-12
 Nucleus-field energy     =     0.0000000055 hartrees
 Requested basis set is 6-31++G(d,p)
 There are 76 shells and 234 basis functions
 A cutoff of  1.0D-12 yielded   2535 shell pairs
 There are     25001 function pairs

 Q-Chem warning in module /project/projectdirs/jcesr/qchem/qc44/cnl_qc441/compile/cori/qc_src/libqints/qchem/aobasis.C, line 68:

 Using reconstructed effective core potential

 Smallest overlap matrix eigenvalue = 6.63E-07
 Linear dependence detected in AO basis
 Number of orthogonalized atomic orbitals = 233
 Maximum deviation from orthogonality = 5.866E-11
 Guess MOs from SCF MO coefficient file
 Reading MOs from coefficient file
 Reading MOs from coefficient file
 An unrestricted hybrid HF-DFT SCF calculation will be
 performed using Pulay DIIS extrapolation
 Exchange:     0.2000 Hartree-Fock + 0.0800 Slater + 0.7200 B88
 Correlation:  0.1900 VWN1RPA + 0.8100 LYP
 Using SG-1 standard quadrature grid
 SCF converges when DIIS error is below 1.0E-08
 Geometry optimization detected.  Setting ReadMinima to 0
 Setting SaveMinima to 0
 ---------------------------------------
  Cycle       Energy         DIIS Error
 ---------------------------------------
    1   -1104.5600987774      7.19E-04
    2   -1104.5717807715      9.86E-05
    3   -1104.5716975542      1.47E-04
    4   -1104.5718524635      3.42E-05
    5   -1104.5718608636      1.31E-05
    6   -1104.5718622246      3.08E-06
    7   -1104.5718623199      8.23E-07
    8   -1104.5718623297      1.77E-07
    9   -1104.5718623308      1.04E-07
   10   -1104.5718623319      4.51E-08
   11   -1104.5718623325      3.60E-08
   12   -1104.5718623324      1.59E-08
   13   -1104.5718623319      5.63E-09 Convergence criterion met
 ---------------------------------------
 <S^2> = 0.7674
 SCF time:  CPU 8.61 s  wall 8.69 s
 SCF   energy in the final basis set = -1104.5718623319
 Total energy in the final basis set = -1104.5718623319
 
 --------------------------------------------------------------
 
                    Orbital Energies (a.u.)
 --------------------------------------------------------------
 
 Alpha MOs
 -- Occupied --
-89.098 -89.098 -10.432 -10.431 -10.418 -10.418 -10.392 -10.392
-10.380 -10.380  -8.157  -8.157  -6.121  -6.121  -6.117  -6.117
 -6.114  -6.114  -1.086  -1.060  -0.958  -0.934  -0.920  -0.880
 -0.789  -0.759  -0.723  -0.713  -0.702  -0.649  -0.595  -0.593
 -0.589  -0.586  -0.579  -0.555  -0.552  -0.535  -0.520  -0.472
 -0.443  -0.435  -0.392
 -- Virtual --
 -0.249  -0.178  -0.162  -0.154  -0.129  -0.125  -0.115  -0.107
 -0.100  -0.100  -0.093  -0.091  -0.078  -0.075  -0.067  -0.053
 -0.051  -0.040  -0.036  -0.028  -0.020  -0.015  -0.011  -0.008
 -0.008   0.005   0.010   0.011   0.015   0.021   0.023   0.024
  0.029   0.035   0.037   0.040   0.043   0.047   0.054   0.059
  0.070   0.074   0.080   0.082   0.089   0.100   0.103   0.106
  0.109   0.123   0.123   0.138   0.143   0.151   0.158   0.173
  0.183   0.183   0.209   0.211   0.212   0.239   0.240   0.244
  0.299   0.314   0.355   0.359   0.380   0.397   0.414   0.432
  0.445   0.468   0.476   0.478   0.482   0.484   0.506   0.524
  0.545   0.547   0.561   0.573   0.574   0.579   0.609   0.616
  0.648   0.649   0.652   0.677   0.698   0.751   0.772   0.779
  0.784   0.786   0.802   0.818   0.821   0.834   0.841   0.849
  0.863   0.872   0.911   0.930   0.933   0.961   0.980   1.003
  1.011   1.015   1.052   1.080   1.094   1.150   1.163   1.167
  1.173   1.175   1.192   1.292   1.295   1.314   1.369   1.435
  1.484   1.508   1.534   1.644   1.669   1.677   1.730   1.732
  1.752   1.781   1.784   1.844   1.871   1.881   1.890   1.943
  1.977   2.004   2.009   2.032   2.064   2.076   2.155   2.193
  2.200   2.252   2.269   2.270   2.298   2.323   2.327   2.350
  2.362   2.376   2.406   2.430   2.498   2.518   2.543   2.578
  2.684   2.695   2.752   2.760   2.970   3.033   3.105   3.114
  3.223   3.249   3.549   3.569   3.797   3.809   4.049   4.094
  4.133   4.140   4.228   4.343   4.485   4.536
 
 Beta MOs
 -- Occupied --
-89.098 -89.098 -10.430 -10.429 -10.414 -10.414 -10.390 -10.390
-10.380 -10.380  -8.157  -8.157  -6.122  -6.122  -6.118  -6.118
 -6.114  -6.114  -1.080  -1.055  -0.952  -0.931  -0.918  -0.870
 -0.784  -0.755  -0.719  -0.710  -0.700  -0.646  -0.593  -0.586
 -0.584  -0.579  -0.577  -0.550  -0.538  -0.534  -0.519  -0.444
 -0.439  -0.432
 -- Virtual --
 -0.326  -0.227  -0.163  -0.159  -0.151  -0.125  -0.116  -0.113
 -0.100  -0.099  -0.095  -0.091  -0.091  -0.077  -0.074  -0.066
 -0.053  -0.049  -0.039  -0.035  -0.027  -0.018  -0.014  -0.011
 -0.008  -0.008   0.006   0.012   0.012   0.016   0.022   0.024
  0.025   0.032   0.035   0.038   0.042   0.043   0.048   0.055
  0.061   0.072   0.075   0.082   0.083   0.092   0.101   0.103
  0.106   0.112   0.124   0.125   0.139   0.144   0.152   0.158
  0.175   0.184   0.186   0.209   0.213   0.214   0.240   0.243
  0.247   0.300   0.315   0.355   0.359   0.382   0.399   0.415
  0.434   0.446   0.470   0.483   0.485   0.491   0.495   0.507
  0.527   0.547   0.551   0.562   0.576   0.582   0.585   0.610
  0.618   0.652   0.653   0.658   0.682   0.699   0.753   0.777
  0.780   0.787   0.789   0.804   0.819   0.823   0.835   0.843
  0.850   0.865   0.873   0.912   0.931   0.934   0.963   0.984
  1.008   1.016   1.020   1.056   1.088   1.096   1.152   1.170
  1.171   1.179   1.181   1.200   1.298   1.300   1.319   1.373
  1.439   1.495   1.523   1.546   1.650   1.672   1.682   1.731
  1.734   1.758   1.785   1.786   1.850   1.875   1.886   1.899
  1.948   1.987   2.017   2.017   2.035   2.074   2.083   2.161
  2.197   2.203   2.253   2.276   2.277   2.299   2.326   2.334
  2.352   2.366   2.382   2.411   2.434   2.501   2.522   2.548
  2.580   2.687   2.700   2.754   2.762   2.971   3.034   3.106
  3.114   3.224   3.250   3.551   3.571   3.798   3.809   4.054
  4.101   4.137   4.143   4.235   4.350   4.489   4.540
 --------------------------------------------------------------
 
          Ground-State Mulliken Net Atomic Charges

     Atom                 Charge (a.u.)    Spin (a.u.)
  --------------------------------------------------------
      1 S                    -0.023983      -0.047820
      2 C                     0.105161       0.329788
      3 H                     0.256308      -0.016443
      4 C                    -0.330997      -0.035693
      5 H                     0.175762       0.000649
      6 C                     0.434032       0.148112
      7 H                     0.155346      -0.009937
      8 C                    -0.271893       0.131412
      9 C                    -0.270633       0.131293
     10 C                     0.432348       0.148124
     11 H                     0.155409      -0.009942
     12 C                    -0.329829      -0.035629
     13 H                     0.175831       0.000651
     14 C                     0.104480       0.329637
     15 H                     0.256258      -0.016447
     16 S                    -0.023599      -0.047756
  --------------------------------------------------------
  Sum of atomic charges =     1.000000
  Sum of spin   charges =     1.000000

 -----------------------------------------------------------------
                    Cartesian Multipole Moments
 -----------------------------------------------------------------
    Charge (ESU x 10^10)
                 4.8032
    Dipole Moment (Debye)
         X      -3.3114      Y       0.2028      Z     -10.1042
       Tot      10.6350
    Quadrupole Moments (Debye-Ang)
        XX     -30.7149     XY      -0.3668     YY     -73.2382
        XZ      21.8491     YZ      -1.6970     ZZ     -25.5014
    Octopole Moments (Debye-Ang^2)
       XXX      66.9096    XXY      -6.1556    XYY      50.2035
       YYY     -16.8843    XXZ      43.7423    XYZ       4.3189
       YYZ     153.6010    XZZ     -44.8014    YZZ       4.2329
       ZZZ     250.3699
    Hexadecapole Moments (Debye-Ang^3)
      XXXX   -1124.0450   XXXY      22.1354   XXYY    -315.7297
      XYYY      21.4534   YYYY     -94.8103   XXXZ    -327.6811
      XXYZ       9.4753   XYYZ    -230.4754   YYYZ      60.6693
      XXZZ    -354.5430   XYZZ     -18.8546   YYZZ    -535.2347
      XZZZ    -180.8769   YZZZ       6.9365   ZZZZ   -2072.7571
 -----------------------------------------------------------------
 Calculating analytic gradient of the SCF energy
 Gradient of SCF Energy
            1           2           3           4           5           6
    1  -0.0023482   0.0018996  -0.0001667   0.0005200  -0.0001295  -0.0015700
    2   0.0004591   0.0002447  -0.0000598  -0.0000581   0.0000292  -0.0017570
    3   0.0004788  -0.0008543   0.0003813   0.0012006  -0.0004724  -0.0015749
            7           8           9          10          11          12
    1   0.0006287   0.0013972  -0.0014326   0.0016767  -0.0006327  -0.0005360
    2   0.0002993   0.0008632   0.0007922  -0.0018864   0.0003164   0.0000808
    3   0.0002434   0.0002638  -0.0001224   0.0013651  -0.0002127  -0.0012128
           13          14          15          16
    1   0.0001307  -0.0018857   0.0001617   0.0022868
    2  -0.0000113   0.0001053  -0.0000033   0.0005856
    3   0.0004690   0.0008822  -0.0003887  -0.0004460
 Max gradient component =       2.348E-03
 RMS gradient           =       9.958E-04
 Gradient time:  CPU 2.00 s  wall 1.98 s
 Geometry Optimization Parameters
   NAtoms,    NIC,     NZ,  NCons,   NDum,   NFix, NCnnct, MaxDiis
       16     111       0       1       0       0       0       0

 Cartesian Hessian Update
 Hessian Updated using BFGS Update


** CONSTRAINED OPTIMIZATION IN DELOCALIZED INTERNAL COORDINATES **
   Searching for a Minimum

   Optimization Cycle:   3

                       Coordinates (Angstroms)
     ATOM                X               Y               Z
      1  S        -0.0256405944    0.0636232961    0.0161889412
      2  C         1.6922431201    0.0076386313   -0.0125185301
      3  H         2.2406448946   -0.0012394439    0.9223413691
      4  C         2.2208312573   -0.0160800949   -1.3042507227
      5  H         3.2834653550   -0.0577953006   -1.5100891553
      6  C         1.2315502107    0.0160050606   -2.2855724567
      7  H         1.4404358148    0.0043308863   -3.3491649492
      8  C        -0.0790156431    0.0635119799   -1.7519200047
      9  C        -1.3008821494    0.0846964299   -2.4519365465
     10  C        -2.6084331719   -0.0618552703   -1.9290430040
     11  H        -2.8149092870   -0.1993320395   -0.8738045240
     12  C        -3.5980189669   -0.0136878306   -2.9094500759
     13  H        -4.6585769146   -0.1103417470   -2.7114410255
     14  C        -3.0725358914    0.1705508339   -4.1894568448
     15  H        -3.6221265868    0.2500358559   -5.1203182959
     16  S        -1.3571879970    0.2815709229   -4.2090226850
   Point Group: c1    Number of degrees of freedom:    42


   Energy is  -1104.571862332

              Constraints and their Current Values
                                        Value     Constraint
   Dihedral:        6   8   9  10      170.000      170.000
 Hessian Updated using BFGS Update

 41 Hessian modes will be used to form the next step
  Hessian Eigenvalues:
     0.041350    0.045000    0.045000    0.045000    0.045000    0.045000
     0.045002    0.045002    0.045004    0.045007    0.045012    0.045085
     0.150883    0.159947    0.159992    0.160000    0.160012    0.160239
     0.217728    0.221282    0.237831    0.241225    0.250000    0.260678
     0.294410    0.295555    0.303058    0.312569    0.354776    0.354964
     0.355127    0.355137    0.358267    0.358487    0.380166    0.404881
     0.428823    0.454195    0.463584    0.485995    0.497935

 Minimum Search - Taking Simple RFO Step
 Searching for Lamda that Minimizes Along All modes
 Value Taken    Lamda =  -0.00011075
 Step Taken.  Stepsize is  0.038177

                             Maximum     Tolerance    Cnvgd?
         Gradient           0.001836      0.000300      NO
         Displacement       0.023860      0.001200      NO
         Energy change     -0.000860      0.000001      NO


 New Cartesian Coordinates Obtained by Inverse Iteration

 Displacement from previous Coordinates is:  0.075887
 ----------------------------------------------------------------
             Standard Nuclear Orientation (Angstroms)
    I     Atom           X                Y                Z
 ----------------------------------------------------------------
    1      S      -0.0216451384     0.0600288169     0.0170279563
    2      C       1.6920431717    -0.0010710313    -0.0120518289
    3      H       2.2429307807    -0.0185755651     0.9208000265
    4      C       2.2208600934    -0.0158783199    -1.3046783631
    5      H       3.2840901201    -0.0608953235    -1.5069579498
    6      C       1.2323879424     0.0261108219    -2.2837182388
    7      H       1.4361482595     0.0161048980    -3.3485316824
    8      C      -0.0800444812     0.0737096542    -1.7510930097
    9      C      -1.3003483276     0.0950948637    -2.4512665818
   10      C      -2.6099245165    -0.0514471810    -1.9296561697
   11      H      -2.8115880480    -0.1873859143    -0.8730681540
   12      C      -3.5980939384    -0.0135368621    -2.9091795326
   13      H      -4.6591961455    -0.1132145122    -2.7153477784
   14      C      -3.0717605579     0.1619544863    -4.1909435051
   15      H      -3.6232897608     0.2324899217    -5.1209395525
   16      S      -1.3607260033     0.2781434167    -4.2098541458
 ----------------------------------------------------------------
 Nuclear Repulsion Energy =   629.8418026078 hartrees
 There are       43 alpha and       42 beta electrons
 Applying Cartesian multipole field
    Component          Value
    ---------          -----
     (2,0,0)        1.00000E-11
     (0,2,0)        2.00000E-11
     (0,0,2)       -3.00000E-12
 Nucleus-field energy     =     0.0000000055 hartrees
 Requested basis set is 6-31++G(d,p)
 There are 76 shells and 234 basis functions
 A cutoff of  1.0D-12 yielded   2537 shell pairs
 There are     25025 function pairs

 Q-Chem warning in module /project/projectdirs/jcesr/qchem/qc44/cnl_qc441/compile/cori/qc_src/libqints/qchem/aobasis.C, line 68:

 Using reconstructed effective core potential

 Smallest overlap matrix eigenvalue = 6.60E-07
 Linear dependence detected in AO basis
 Number of orthogonalized atomic orbitals = 233
 Maximum deviation from orthogonality = 3.995E-11
 Guess MOs from SCF MO coefficient file
 Reading MOs from coefficient file
 Reading MOs from coefficient file
 An unrestricted hybrid HF-DFT SCF calculation will be
 performed using Pulay DIIS extrapolation
 Exchange:     0.2000 Hartree-Fock + 0.0800 Slater + 0.7200 B88
 Correlation:  0.1900 VWN1RPA + 0.8100 LYP
 Using SG-1 standard quadrature grid
 SCF converges when DIIS error is below 1.0E-08
 Geometry optimization detected.  Setting ReadMinima to 0
 Setting SaveMinima to 0
 ---------------------------------------
  Cycle       Energy         DIIS Error
 ---------------------------------------
    1   -1104.5738405434      3.08E-04
    2   -1104.5719200746      2.36E-05
    3   -1104.5719217502      2.49E-05
    4   -1104.5719263577      7.91E-06
    5   -1104.5719268697      1.40E-06
    6   -1104.5719268777      1.39E-06
    7   -1104.5719268927      4.05E-07
    8   -1104.5719268947      9.79E-08
    9   -1104.5719268961      6.21E-08
   10   -1104.5719268960      3.02E-08
   11   -1104.5719268960      1.79E-08
   12   -1104.5719268958      8.00E-09 Convergence criterion met
 ---------------------------------------
 <S^2> = 0.7673
 SCF time:  CPU 7.92 s  wall 7.74 s
 SCF   energy in the final basis set = -1104.5719268958
 Total energy in the final basis set = -1104.5719268958
 
 --------------------------------------------------------------
 
                    Orbital Energies (a.u.)
 --------------------------------------------------------------
 
 Alpha MOs
 -- Occupied --
-89.098 -89.098 -10.432 -10.431 -10.418 -10.418 -10.392 -10.392
-10.380 -10.380  -8.157  -8.157  -6.122  -6.122  -6.118  -6.118
 -6.114  -6.114  -1.086  -1.061  -0.959  -0.934  -0.921  -0.880
 -0.789  -0.759  -0.723  -0.713  -0.702  -0.650  -0.595  -0.593
 -0.590  -0.586  -0.579  -0.555  -0.553  -0.535  -0.520  -0.472
 -0.443  -0.436  -0.391
 -- Virtual --
 -0.249  -0.178  -0.161  -0.153  -0.129  -0.125  -0.115  -0.107
 -0.100  -0.100  -0.092  -0.091  -0.078  -0.075  -0.067  -0.053
 -0.051  -0.040  -0.036  -0.028  -0.020  -0.015  -0.011  -0.009
 -0.008   0.005   0.011   0.011   0.015   0.021   0.023   0.024
  0.029   0.035   0.037   0.040   0.043   0.047   0.054   0.059
  0.070   0.074   0.080   0.082   0.089   0.100   0.103   0.106
  0.110   0.123   0.124   0.139   0.144   0.151   0.158   0.173
  0.183   0.184   0.209   0.211   0.212   0.239   0.241   0.244
  0.299   0.314   0.355   0.359   0.379   0.398   0.415   0.433
  0.445   0.469   0.475   0.479   0.482   0.485   0.506   0.525
  0.546   0.547   0.561   0.572   0.575   0.579   0.609   0.616
  0.647   0.649   0.652   0.676   0.698   0.751   0.772   0.779
  0.785   0.786   0.803   0.818   0.821   0.834   0.840   0.850
  0.863   0.873   0.911   0.930   0.934   0.962   0.980   1.003
  1.010   1.016   1.053   1.081   1.094   1.150   1.163   1.166
  1.172   1.175   1.193   1.292   1.297   1.314   1.369   1.436
  1.484   1.509   1.535   1.644   1.669   1.676   1.731   1.733
  1.752   1.781   1.785   1.845   1.870   1.880   1.890   1.944
  1.977   2.006   2.010   2.030   2.064   2.076   2.156   2.194
  2.200   2.251   2.270   2.270   2.298   2.322   2.327   2.351
  2.362   2.376   2.407   2.430   2.499   2.518   2.543   2.578
  2.684   2.696   2.753   2.760   2.971   3.033   3.105   3.114
  3.223   3.248   3.550   3.570   3.797   3.809   4.049   4.094
  4.134   4.141   4.229   4.343   4.485   4.536
 
 Beta MOs
 -- Occupied --
-89.098 -89.098 -10.430 -10.429 -10.414 -10.414 -10.390 -10.390
-10.380 -10.380  -8.158  -8.157  -6.122  -6.122  -6.118  -6.118
 -6.115  -6.115  -1.080  -1.055  -0.952  -0.931  -0.919  -0.870
 -0.784  -0.755  -0.719  -0.710  -0.700  -0.647  -0.594  -0.587
 -0.584  -0.579  -0.577  -0.551  -0.539  -0.534  -0.519  -0.445
 -0.439  -0.432
 -- Virtual --
 -0.326  -0.227  -0.163  -0.159  -0.150  -0.125  -0.116  -0.113
 -0.100  -0.099  -0.095  -0.091  -0.091  -0.077  -0.074  -0.066
 -0.053  -0.049  -0.039  -0.035  -0.027  -0.018  -0.014  -0.010
 -0.008  -0.008   0.006   0.012   0.012   0.016   0.022   0.024
  0.025   0.032   0.035   0.038   0.042   0.043   0.048   0.054
  0.061   0.072   0.076   0.082   0.083   0.092   0.101   0.103
  0.106   0.112   0.124   0.125   0.139   0.144   0.153   0.158
  0.175   0.184   0.186   0.210   0.213   0.214   0.240   0.243
  0.247   0.299   0.316   0.355   0.359   0.382   0.399   0.416
  0.435   0.446   0.471   0.482   0.484   0.492   0.495   0.507
  0.527   0.547   0.551   0.562   0.577   0.581   0.585   0.611
  0.618   0.652   0.652   0.657   0.682   0.700   0.753   0.777
  0.780   0.788   0.790   0.805   0.820   0.823   0.834   0.842
  0.851   0.865   0.875   0.913   0.932   0.935   0.963   0.984
  1.007   1.015   1.020   1.056   1.089   1.096   1.152   1.170
  1.170   1.180   1.180   1.201   1.299   1.300   1.319   1.373
  1.440   1.496   1.524   1.546   1.650   1.672   1.682   1.732
  1.735   1.758   1.786   1.787   1.850   1.874   1.885   1.899
  1.949   1.987   2.017   2.018   2.034   2.076   2.083   2.162
  2.197   2.203   2.253   2.277   2.277   2.299   2.326   2.334
  2.353   2.366   2.381   2.411   2.433   2.502   2.522   2.548
  2.581   2.687   2.701   2.755   2.763   2.972   3.035   3.106
  3.114   3.224   3.249   3.551   3.572   3.798   3.810   4.054
  4.101   4.137   4.144   4.235   4.350   4.489   4.540
 --------------------------------------------------------------
 
          Ground-State Mulliken Net Atomic Charges

     Atom                 Charge (a.u.)    Spin (a.u.)
  --------------------------------------------------------
      1 S                    -0.022017      -0.047425
      2 C                     0.105217       0.329615
      3 H                     0.256460      -0.016465
      4 C                    -0.334090      -0.035122
      5 H                     0.175857       0.000627
      6 C                     0.434318       0.146739
      7 H                     0.154966      -0.009923
      8 C                    -0.271404       0.131987
      9 C                    -0.269250       0.131855
     10 C                     0.432990       0.146826
     11 H                     0.155099      -0.009928
     12 C                    -0.333107      -0.035092
     13 H                     0.175933       0.000630
     14 C                     0.104472       0.329549
     15 H                     0.256393      -0.016471
     16 S                    -0.021836      -0.047403
  --------------------------------------------------------
  Sum of atomic charges =     1.000000
  Sum of spin   charges =     1.000000

 -----------------------------------------------------------------
                    Cartesian Multipole Moments
 -----------------------------------------------------------------
    Charge (ESU x 10^10)
                 4.8032
    Dipole Moment (Debye)
         X      -3.3113      Y       0.1828      Z     -10.1054
       Tot      10.6356
    Quadrupole Moments (Debye-Ang)
        XX     -30.7237     XY      -0.3576     YY     -73.2271
        XZ      21.9415     YZ      -1.6540     ZZ     -25.4762
    Octopole Moments (Debye-Ang^2)
       XXX      66.9363    XXY      -6.4871    XYY      50.2274
       YYY     -16.9761    XXZ      43.6286    XYZ       3.9160
       YYZ     153.6028    XZZ     -45.2425    YZZ       3.7168
       ZZZ     250.1356
    Hexadecapole Moments (Debye-Ang^3)
      XXXX   -1124.3948   XXXY      22.8088   XXYY    -315.8905
      XYYY      21.5589   YYYY     -94.5060   XXXZ    -327.0682
      XXYZ      10.7103   XYYZ    -230.8074   YYYZ      60.8946
      XXZZ    -353.7872   XYZZ     -16.9033   YYZZ    -535.3885
      XZZZ    -179.6553   YZZZ       9.8443   ZZZZ   -2072.1781
 -----------------------------------------------------------------
 Calculating analytic gradient of the SCF energy
 Gradient of SCF Energy
            1           2           3           4           5           6
    1  -0.0000353   0.0004625  -0.0000991  -0.0002904  -0.0000034   0.0001490
    2   0.0001967   0.0000973  -0.0000239   0.0000564  -0.0000334  -0.0014907
    3  -0.0000264  -0.0000439   0.0000332  -0.0000080  -0.0000845   0.0000607
            7           8           9          10          11          12
    1   0.0001687  -0.0006032   0.0005640  -0.0001101  -0.0001690   0.0002825
    2   0.0000712   0.0011255   0.0010859  -0.0014748   0.0000747   0.0000702
    3   0.0000433  -0.0001989   0.0003213  -0.0002297  -0.0000372   0.0000188
           13          14          15          16
    1   0.0000053  -0.0004499   0.0000985   0.0000299
    2  -0.0000351   0.0000914  -0.0000093   0.0001978
    3   0.0000805   0.0000746  -0.0000365   0.0000327
 Max gradient component =       1.491E-03
 RMS gradient           =       4.224E-04
 Gradient time:  CPU 1.90 s  wall 1.90 s
 Geometry Optimization Parameters
   NAtoms,    NIC,     NZ,  NCons,   NDum,   NFix, NCnnct, MaxDiis
       16     111       0       1       0       0       0       0

 Cartesian Hessian Update
 Hessian Updated using BFGS Update


** CONSTRAINED OPTIMIZATION IN DELOCALIZED INTERNAL COORDINATES **
   Searching for a Minimum

   Optimization Cycle:   4

                       Coordinates (Angstroms)
     ATOM                X               Y               Z
      1  S        -0.0216451384    0.0600288169    0.0170279563
      2  C         1.6920431717   -0.0010710313   -0.0120518289
      3  H         2.2429307807   -0.0185755651    0.9208000265
      4  C         2.2208600934   -0.0158783199   -1.3046783631
      5  H         3.2840901201   -0.0608953235   -1.5069579498
      6  C         1.2323879424    0.0261108219   -2.2837182388
      7  H         1.4361482595    0.0161048980   -3.3485316824
      8  C        -0.0800444812    0.0737096542   -1.7510930097
      9  C        -1.3003483276    0.0950948637   -2.4512665818
     10  C        -2.6099245165   -0.0514471810   -1.9296561697
     11  H        -2.8115880480   -0.1873859143   -0.8730681540
     12  C        -3.5980939384   -0.0135368621   -2.9091795326
     13  H        -4.6591961455   -0.1132145122   -2.7153477784
     14  C        -3.0717605579    0.1619544863   -4.1909435051
     15  H        -3.6232897608    0.2324899217   -5.1209395525
     16  S        -1.3607260033    0.2781434167   -4.2098541458
   Point Group: c1    Number of degrees of freedom:    42


   Energy is  -1104.571926896

              Constraints and their Current Values
                                        Value     Constraint
   Dihedral:        6   8   9  10      170.000      170.000
 Hessian Updated using BFGS Update

 41 Hessian modes will be used to form the next step
  Hessian Eigenvalues:
     0.031462    0.045000    0.045000    0.045000    0.045000    0.045001
     0.045002    0.045003    0.045005    0.045010    0.045012    0.045192
     0.144751    0.159906    0.159947    0.159992    0.160000    0.160206
     0.220093    0.221290    0.237844    0.247789    0.249994    0.280467
     0.294441    0.297406    0.307642    0.312569    0.354730    0.354849
     0.355128    0.355154    0.358272    0.358847    0.377969    0.404885
     0.428998    0.453470    0.463584    0.489432    0.497935

 Minimum Search - Taking Simple RFO Step
 Searching for Lamda that Minimizes Along All modes
 Value Taken    Lamda =  -0.00001253
 Step Taken.  Stepsize is  0.017894

                             Maximum     Tolerance    Cnvgd?
         Gradient           0.000494      0.000300      NO
         Displacement       0.012902      0.001200      NO
         Energy change     -0.000065      0.000001      NO


 New Cartesian Coordinates Obtained by Inverse Iteration

 Displacement from previous Coordinates is:  0.041864
 ----------------------------------------------------------------
             Standard Nuclear Orientation (Angstroms)
    I     Atom           X                Y                Z
 ----------------------------------------------------------------
    1      S      -0.0214805061     0.0573568520     0.0172826053
    2      C       1.6913556809    -0.0060968700    -0.0122091768
    3      H       2.2431423871    -0.0281716158     0.9200322733
    4      C       2.2208557088    -0.0158737425    -1.3048914936
    5      H       3.2842356888    -0.0617631172    -1.5060693178
    6      C       1.2322775660     0.0314471368    -2.2837110641
    7      H       1.4338941727     0.0235031719    -3.3489855159
    8      C      -0.0799136608     0.0790189557    -1.7507424865
    9      C      -1.3006762447     0.1004826252    -2.4508493146
   10      C      -2.6100668335    -0.0460731787    -1.9290246883
   11      H      -2.8097642498    -0.1800072747    -0.8717664909
   12      C      -3.5980873763    -0.0135438390    -2.9090449236
   13      H      -4.6593285246    -0.1140130024    -2.7164928493
   14      C      -3.0708421507     0.1569473579    -4.1914033405
   15      H      -3.6230326548     0.2228152852    -5.1213618226
   16      S      -1.3607255533     0.2756034258    -4.2102209041
 ----------------------------------------------------------------
 Nuclear Repulsion Energy =   629.8722368802 hartrees
 There are       43 alpha and       42 beta electrons
 Applying Cartesian multipole field
    Component          Value
    ---------          -----
     (2,0,0)        1.00000E-11
     (0,2,0)        2.00000E-11
     (0,0,2)       -3.00000E-12
 Nucleus-field energy     =     0.0000000055 hartrees
 Requested basis set is 6-31++G(d,p)
 There are 76 shells and 234 basis functions
 A cutoff of  1.0D-12 yielded   2537 shell pairs
 There are     25025 function pairs

 Q-Chem warning in module /project/projectdirs/jcesr/qchem/qc44/cnl_qc441/compile/cori/qc_src/libqints/qchem/aobasis.C, line 68:

 Using reconstructed effective core potential

 Smallest overlap matrix eigenvalue = 6.62E-07
 Linear dependence detected in AO basis
 Number of orthogonalized atomic orbitals = 233
 Maximum deviation from orthogonality = 3.517E-11
 Guess MOs from SCF MO coefficient file
 Reading MOs from coefficient file
 Reading MOs from coefficient file
 An unrestricted hybrid HF-DFT SCF calculation will be
 performed using Pulay DIIS extrapolation
 Exchange:     0.2000 Hartree-Fock + 0.0800 Slater + 0.7200 B88
 Correlation:  0.1900 VWN1RPA + 0.8100 LYP
 Using SG-1 standard quadrature grid
 SCF converges when DIIS error is below 1.0E-08
 Geometry optimization detected.  Setting ReadMinima to 0
 Setting SaveMinima to 0
 ---------------------------------------
  Cycle       Energy         DIIS Error
 ---------------------------------------
    1   -1104.5709954831      1.50E-04
    2   -1104.5719332717      1.17E-05
    3   -1104.5719325759      1.73E-05
    4   -1104.5719348110      4.97E-06
    5   -1104.5719349811      2.00E-06
    6   -1104.5719350131      6.28E-07
    7   -1104.5719350174      1.70E-07
    8   -1104.5719350160      4.43E-08
    9   -1104.5719350168      2.41E-08
   10   -1104.5719350163      1.27E-08
   11   -1104.5719350163      7.76E-09 Convergence criterion met
 ---------------------------------------
 <S^2> = 0.7672
 SCF time:  CPU 7.25 s  wall 6.94 s
 SCF   energy in the final basis set = -1104.5719350163
 Total energy in the final basis set = -1104.5719350163
 
 --------------------------------------------------------------
 
                    Orbital Energies (a.u.)
 --------------------------------------------------------------
 
 Alpha MOs
 -- Occupied --
-89.098 -89.098 -10.432 -10.431 -10.418 -10.418 -10.392 -10.392
-10.380 -10.380  -8.157  -8.157  -6.122  -6.122  -6.118  -6.118
 -6.114  -6.114  -1.086  -1.061  -0.959  -0.934  -0.921  -0.880
 -0.789  -0.759  -0.723  -0.712  -0.702  -0.650  -0.595  -0.593
 -0.590  -0.586  -0.579  -0.555  -0.553  -0.535  -0.520  -0.472
 -0.443  -0.436  -0.391
 -- Virtual --
 -0.249  -0.178  -0.161  -0.153  -0.129  -0.125  -0.115  -0.107
 -0.100  -0.100  -0.092  -0.092  -0.078  -0.075  -0.067  -0.053
 -0.051  -0.040  -0.036  -0.028  -0.020  -0.015  -0.011  -0.009
 -0.008   0.005   0.011   0.011   0.015   0.021   0.023   0.024
  0.029   0.035   0.038   0.040   0.043   0.047   0.054   0.059
  0.070   0.074   0.080   0.082   0.089   0.100   0.103   0.106
  0.110   0.123   0.123   0.139   0.144   0.151   0.158   0.173
  0.182   0.184   0.209   0.211   0.212   0.239   0.241   0.244
  0.299   0.314   0.355   0.359   0.380   0.398   0.415   0.434
  0.444   0.469   0.475   0.479   0.483   0.485   0.506   0.525
  0.546   0.547   0.561   0.572   0.575   0.579   0.609   0.616
  0.647   0.649   0.652   0.676   0.698   0.751   0.771   0.779
  0.785   0.787   0.803   0.819   0.821   0.833   0.840   0.850
  0.863   0.873   0.911   0.930   0.934   0.961   0.980   1.002
  1.010   1.016   1.053   1.081   1.093   1.151   1.163   1.166
  1.172   1.175   1.194   1.292   1.297   1.314   1.368   1.436
  1.484   1.510   1.535   1.643   1.669   1.676   1.731   1.733
  1.752   1.781   1.785   1.844   1.870   1.880   1.890   1.944
  1.978   2.007   2.010   2.030   2.065   2.076   2.156   2.194
  2.200   2.251   2.270   2.270   2.298   2.322   2.327   2.352
  2.361   2.376   2.407   2.429   2.499   2.518   2.543   2.578
  2.683   2.696   2.753   2.761   2.970   3.033   3.105   3.113
  3.223   3.247   3.550   3.570   3.798   3.809   4.048   4.094
  4.134   4.141   4.228   4.343   4.485   4.536
 
 Beta MOs
 -- Occupied --
-89.098 -89.098 -10.430 -10.429 -10.414 -10.414 -10.390 -10.390
-10.380 -10.380  -8.158  -8.158  -6.122  -6.122  -6.118  -6.118
 -6.115  -6.115  -1.080  -1.055  -0.952  -0.932  -0.919  -0.870
 -0.784  -0.755  -0.719  -0.710  -0.700  -0.647  -0.594  -0.587
 -0.584  -0.579  -0.577  -0.551  -0.539  -0.534  -0.519  -0.445
 -0.439  -0.432
 -- Virtual --
 -0.326  -0.227  -0.163  -0.159  -0.150  -0.125  -0.116  -0.113
 -0.100  -0.099  -0.095  -0.091  -0.091  -0.077  -0.074  -0.066
 -0.053  -0.049  -0.039  -0.035  -0.027  -0.018  -0.014  -0.010
 -0.008  -0.008   0.006   0.012   0.012   0.017   0.022   0.024
  0.025   0.032   0.035   0.038   0.042   0.043   0.048   0.054
  0.061   0.072   0.076   0.082   0.083   0.092   0.101   0.103
  0.106   0.112   0.124   0.125   0.139   0.144   0.153   0.158
  0.175   0.183   0.186   0.210   0.213   0.214   0.240   0.243
  0.247   0.299   0.316   0.355   0.359   0.382   0.399   0.416
  0.435   0.446   0.471   0.482   0.484   0.492   0.495   0.507
  0.527   0.548   0.551   0.562   0.577   0.581   0.585   0.611
  0.618   0.652   0.652   0.657   0.682   0.700   0.752   0.777
  0.780   0.788   0.790   0.805   0.820   0.823   0.834   0.842
  0.851   0.865   0.875   0.913   0.932   0.935   0.963   0.985
  1.007   1.015   1.020   1.056   1.089   1.096   1.152   1.169
  1.170   1.180   1.180   1.201   1.300   1.301   1.319   1.372
  1.440   1.495   1.524   1.546   1.650   1.673   1.682   1.732
  1.735   1.759   1.786   1.787   1.850   1.874   1.885   1.899
  1.949   1.988   2.017   2.018   2.034   2.076   2.083   2.162
  2.197   2.203   2.253   2.277   2.277   2.299   2.326   2.334
  2.354   2.366   2.381   2.411   2.433   2.502   2.522   2.548
  2.581   2.686   2.701   2.755   2.763   2.971   3.034   3.106
  3.114   3.224   3.249   3.551   3.572   3.798   3.810   4.054
  4.101   4.137   4.144   4.235   4.350   4.489   4.539
 --------------------------------------------------------------
 
          Ground-State Mulliken Net Atomic Charges

     Atom                 Charge (a.u.)    Spin (a.u.)
  --------------------------------------------------------
      1 S                    -0.022070      -0.047330
      2 C                     0.104532       0.329409
      3 H                     0.256401      -0.016462
      4 C                    -0.334717      -0.034794
      5 H                     0.175924       0.000612
      6 C                     0.435242       0.146362
      7 H                     0.154747      -0.009919
      8 C                    -0.270928       0.132164
      9 C                    -0.268379       0.131999
     10 C                     0.434057       0.146465
     11 H                     0.154897      -0.009924
     12 C                    -0.333850      -0.034767
     13 H                     0.176001       0.000615
     14 C                     0.103805       0.329347
     15 H                     0.256331      -0.016467
     16 S                    -0.021992      -0.047309
  --------------------------------------------------------
  Sum of atomic charges =     1.000000
  Sum of spin   charges =     1.000000

 -----------------------------------------------------------------
                    Cartesian Multipole Moments
 -----------------------------------------------------------------
    Charge (ESU x 10^10)
                 4.8032
    Dipole Moment (Debye)
         X      -3.3110      Y       0.1728      Z     -10.1058
       Tot      10.6357
    Quadrupole Moments (Debye-Ang)
        XX     -30.7360     XY      -0.3510     YY     -73.2319
        XZ      21.9492     YZ      -1.6334     ZZ     -25.4680
    Octopole Moments (Debye-Ang^2)
       XXX      66.9681    XXY      -6.6207    XYY      50.2505
       YYY     -16.9550    XXZ      43.6409    XYZ       3.6857
       YYZ     153.6289    XZZ     -45.3038    YZZ       3.4662
       ZZZ     250.0461
    Hexadecapole Moments (Debye-Ang^3)
      XXXX   -1124.1332   XXXY      23.0772   XXYY    -315.8959
      XYYY      21.5506   YYYY     -94.3497   XXXZ    -326.8768
      XXYZ      11.3008   XYYZ    -230.8877   YYYZ      60.8753
      XXZZ    -353.7722   XYZZ     -15.8162   YYZZ    -535.5455
      XZZZ    -179.3729   YZZZ      11.2544   ZZZZ   -2071.8524
 -----------------------------------------------------------------
 Calculating analytic gradient of the SCF energy
 Gradient of SCF Energy
            1           2           3           4           5           6
    1   0.0002286  -0.0000444  -0.0000183  -0.0000741   0.0000124   0.0001793
    2   0.0000675   0.0000281  -0.0000034   0.0000594  -0.0000383  -0.0013959
    3  -0.0000472   0.0000783  -0.0000109  -0.0001041   0.0000129   0.0001196
            7           8           9          10          11          12
    1  -0.0000244  -0.0002534   0.0002223  -0.0001416   0.0000270   0.0000695
    2  -0.0000169   0.0012907   0.0012620  -0.0013726  -0.0000153   0.0000551
    3  -0.0000210  -0.0001362   0.0002799  -0.0002700   0.0000191   0.0001063
           13          14          15          16
    1  -0.0000112   0.0000454   0.0000167  -0.0002337
    2  -0.0000288   0.0000489   0.0000037   0.0000558
    3  -0.0000180  -0.0000726   0.0000090   0.0000549
 Max gradient component =       1.396E-03
 RMS gradient           =       3.986E-04
 Gradient time:  CPU 1.89 s  wall 1.90 s
 Geometry Optimization Parameters
   NAtoms,    NIC,     NZ,  NCons,   NDum,   NFix, NCnnct, MaxDiis
       16     111       0       1       0       0       0       0

 Cartesian Hessian Update
 Hessian Updated using BFGS Update


** CONSTRAINED OPTIMIZATION IN DELOCALIZED INTERNAL COORDINATES **
   Searching for a Minimum

   Optimization Cycle:   5

                       Coordinates (Angstroms)
     ATOM                X               Y               Z
      1  S        -0.0214805061    0.0573568520    0.0172826053
      2  C         1.6913556809   -0.0060968700   -0.0122091768
      3  H         2.2431423871   -0.0281716158    0.9200322733
      4  C         2.2208557088   -0.0158737425   -1.3048914936
      5  H         3.2842356888   -0.0617631172   -1.5060693178
      6  C         1.2322775660    0.0314471368   -2.2837110641
      7  H         1.4338941727    0.0235031719   -3.3489855159
      8  C        -0.0799136608    0.0790189557   -1.7507424865
      9  C        -1.3006762447    0.1004826252   -2.4508493146
     10  C        -2.6100668335   -0.0460731787   -1.9290246883
     11  H        -2.8097642498   -0.1800072747   -0.8717664909
     12  C        -3.5980873763   -0.0135438390   -2.9090449236
     13  H        -4.6593285246   -0.1140130024   -2.7164928493
     14  C        -3.0708421507    0.1569473579   -4.1914033405
     15  H        -3.6230326548    0.2228152852   -5.1213618226
     16  S        -1.3607255533    0.2756034258   -4.2102209041
   Point Group: c1    Number of degrees of freedom:    42


   Energy is  -1104.571935016

              Constraints and their Current Values
                                        Value     Constraint
   Dihedral:        6   8   9  10      170.000      170.000
 Hessian Updated using BFGS Update

 40 Hessian modes will be used to form the next step
  Hessian Eigenvalues:
     0.020802    0.044934    0.045000    0.045000    0.045000    0.045002
     0.045003    0.045004    0.045006    0.045012    0.045539    0.155491
     0.159844    0.159949    0.159992    0.160000    0.163143    0.221142
     0.221291    0.237856    0.245043    0.249995    0.272932    0.294451
     0.297917    0.304869    0.312571    0.354784    0.355051    0.355129
     0.355293    0.358273    0.358939    0.382373    0.404896    0.430142
     0.453066    0.463585    0.486933    0.497935

 Minimum Search - Taking Simple RFO Step
 Searching for Lamda that Minimizes Along All modes
 Value Taken    Lamda =  -0.00000330
 Step Taken.  Stepsize is  0.011157

                             Maximum     Tolerance    Cnvgd?
         Gradient           0.000262      0.000300     YES
         Displacement       0.008680      0.001200      NO
         Energy change     -0.000008      0.000001      NO


 New Cartesian Coordinates Obtained by Inverse Iteration

 Displacement from previous Coordinates is:  0.028460
 ----------------------------------------------------------------
             Standard Nuclear Orientation (Angstroms)
    I     Atom           X                Y                Z
 ----------------------------------------------------------------
    1      S      -0.0219221920     0.0554759155     0.0173244554
    2      C       1.6908893576    -0.0095732092    -0.0124336787
    3      H       2.2430290453    -0.0346765414     0.9195523279
    4      C       2.2206070780    -0.0160374133    -1.3050578993
    5      H       3.2839782126    -0.0620462017    -1.5061430647
    6      C       1.2320136488     0.0348362655    -2.2838398177
    7      H       1.4332817964     0.0290373448    -3.3491739749
    8      C      -0.0798264010     0.0823743103    -1.7506224040
    9      C      -1.3008906921     0.1038816721    -2.4505442078
   10      C      -2.6099408918    -0.0426768043    -1.9285126799
   11      H      -2.8094079822    -0.1745035168    -0.8709644134
   12      C      -3.5978322782    -0.0137074834    -2.9089170198
   13      H      -4.6590638126    -0.1143092980    -2.7164883617
   14      C      -3.0702335830     0.1534655011    -4.1915791100
   15      H      -3.6226478638     0.2162615745    -5.1216400585
   16      S      -1.3601899920     0.2738300543    -4.2104186028
 ----------------------------------------------------------------
 Nuclear Repulsion Energy =   629.8990848410 hartrees
 There are       43 alpha and       42 beta electrons
 Applying Cartesian multipole field
    Component          Value
    ---------          -----
     (2,0,0)        1.00000E-11
     (0,2,0)        2.00000E-11
     (0,0,2)       -3.00000E-12
 Nucleus-field energy     =     0.0000000054 hartrees
 Requested basis set is 6-31++G(d,p)
 There are 76 shells and 234 basis functions
 A cutoff of  1.0D-12 yielded   2537 shell pairs
 There are     25025 function pairs

 Q-Chem warning in module /project/projectdirs/jcesr/qchem/qc44/cnl_qc441/compile/cori/qc_src/libqints/qchem/aobasis.C, line 68:

 Using reconstructed effective core potential

 Smallest overlap matrix eigenvalue = 6.64E-07
 Linear dependence detected in AO basis
 Number of orthogonalized atomic orbitals = 233
 Maximum deviation from orthogonality = 9.584E-11
 Guess MOs from SCF MO coefficient file
 Reading MOs from coefficient file
 Reading MOs from coefficient file
 An unrestricted hybrid HF-DFT SCF calculation will be
 performed using Pulay DIIS extrapolation
 Exchange:     0.2000 Hartree-Fock + 0.0800 Slater + 0.7200 B88
[...]
    7   -1104.5719374802      5.14E-08
    8   -1104.5719374812      7.01E-09 Convergence criterion met
 ---------------------------------------
 <S^2> = 0.7672
 SCF time:  CPU 5.16 s  wall 6.15 s
 SCF   energy in the final basis set = -1104.5719374812
 Total energy in the final basis set = -1104.5719374812
 
 --------------------------------------------------------------
 
                    Orbital Energies (a.u.)
 --------------------------------------------------------------
 
 Alpha MOs
 -- Occupied --
-89.098 -89.098 -10.432 -10.431 -10.418 -10.418 -10.392 -10.392
-10.380 -10.380  -8.157  -8.157  -6.122  -6.122  -6.118  -6.118
 -6.114  -6.114  -1.086  -1.061  -0.959  -0.934  -0.921  -0.880
 -0.789  -0.759  -0.723  -0.713  -0.702  -0.650  -0.595  -0.593
 -0.589  -0.586  -0.579  -0.555  -0.553  -0.535  -0.520  -0.472
 -0.443  -0.436  -0.391
 -- Virtual --
 -0.249  -0.178  -0.161  -0.153  -0.129  -0.125  -0.115  -0.107
 -0.100  -0.100  -0.092  -0.092  -0.078  -0.075  -0.067  -0.053
 -0.051  -0.040  -0.036  -0.028  -0.020  -0.015  -0.011  -0.009
 -0.008   0.005   0.011   0.011   0.016   0.021   0.023   0.024
  0.029   0.034   0.038   0.040   0.043   0.047   0.054   0.059
  0.070   0.075   0.080   0.082   0.089   0.100   0.103   0.106
  0.110   0.123   0.123   0.139   0.144   0.152   0.158   0.173
  0.182   0.184   0.209   0.212   0.213   0.239   0.241   0.244
  0.299   0.315   0.355   0.359   0.380   0.398   0.415   0.434
  0.444   0.470   0.475   0.479   0.483   0.485   0.506   0.526
  0.547   0.547   0.561   0.572   0.575   0.579   0.609   0.616
  0.647   0.649   0.652   0.676   0.698   0.751   0.771   0.779
  0.786   0.786   0.803   0.819   0.821   0.833   0.840   0.850
  0.863   0.874   0.911   0.930   0.934   0.961   0.980   1.002
  1.010   1.016   1.053   1.081   1.093   1.151   1.163   1.166
  1.172   1.175   1.194   1.292   1.297   1.314   1.368   1.437
  1.484   1.509   1.535   1.643   1.670   1.676   1.731   1.734
  1.752   1.781   1.785   1.845   1.870   1.880   1.890   1.944
  1.978   2.006   2.010   2.030   2.065   2.076   2.156   2.194
  2.200   2.251   2.270   2.270   2.298   2.322   2.327   2.352
  2.361   2.376   2.407   2.429   2.499   2.518   2.543   2.578
  2.683   2.696   2.754   2.761   2.970   3.033   3.105   3.113
  3.223   3.247   3.550   3.570   3.798   3.809   4.048   4.094
  4.134   4.141   4.228   4.343   4.485   4.536
 
 Beta MOs
 -- Occupied --
-89.098 -89.098 -10.430 -10.429 -10.414 -10.414 -10.390 -10.390
-10.380 -10.380  -8.158  -8.158  -6.122  -6.122  -6.118  -6.118
 -6.115  -6.115  -1.080  -1.055  -0.952  -0.932  -0.919  -0.870
 -0.784  -0.755  -0.719  -0.710  -0.700  -0.647  -0.594  -0.587
 -0.584  -0.579  -0.577  -0.551  -0.539  -0.534  -0.519  -0.445
 -0.439  -0.432
 -- Virtual --
 -0.326  -0.227  -0.163  -0.159  -0.150  -0.125  -0.116  -0.113
 -0.100  -0.099  -0.095  -0.091  -0.091  -0.077  -0.074  -0.066
 -0.052  -0.049  -0.039  -0.035  -0.027  -0.018  -0.014  -0.010
 -0.008  -0.008   0.006   0.012   0.012   0.017   0.022   0.024
  0.025   0.032   0.035   0.038   0.042   0.043   0.048   0.054
  0.061   0.072   0.076   0.082   0.083   0.092   0.101   0.103
  0.106   0.112   0.124   0.125   0.139   0.144   0.153   0.158
  0.175   0.183   0.186   0.211   0.213   0.215   0.240   0.243
  0.247   0.299   0.316   0.355   0.359   0.382   0.399   0.416
  0.436   0.445   0.471   0.482   0.484   0.493   0.495   0.507
  0.528   0.548   0.551   0.563   0.577   0.581   0.585   0.611
  0.618   0.652   0.652   0.657   0.682   0.700   0.752   0.777
  0.780   0.788   0.790   0.805   0.820   0.823   0.834   0.842
  0.851   0.865   0.875   0.912   0.932   0.935   0.963   0.985
  1.006   1.014   1.020   1.056   1.090   1.096   1.153   1.169
  1.169   1.180   1.181   1.202   1.300   1.301   1.318   1.372
  1.441   1.495   1.524   1.546   1.650   1.673   1.682   1.732
  1.736   1.759   1.785   1.787   1.850   1.874   1.885   1.899
  1.949   1.988   2.017   2.018   2.034   2.076   2.083   2.162
  2.197   2.203   2.253   2.277   2.277   2.299   2.326   2.334
  2.353   2.366   2.381   2.411   2.433   2.502   2.522   2.548
  2.581   2.686   2.701   2.755   2.763   2.971   3.034   3.106
  3.114   3.224   3.249   3.551   3.572   3.798   3.810   4.054
  4.101   4.138   4.144   4.235   4.350   4.489   4.539
 --------------------------------------------------------------
 
          Ground-State Mulliken Net Atomic Charges

     Atom                 Charge (a.u.)    Spin (a.u.)
  --------------------------------------------------------
      1 S                    -0.022539      -0.047388
      2 C                     0.103992       0.329429
      3 H                     0.256322      -0.016455
      4 C                    -0.335857      -0.034819
      5 H                     0.175943       0.000608
      6 C                     0.436887       0.146451
      7 H                     0.154647      -0.009925
      8 C                    -0.270405       0.132148
      9 C                    -0.267484       0.131968
     10 C                     0.435654       0.146551
     11 H                     0.154801      -0.009930
     12 C                    -0.334976      -0.034787
     13 H                     0.176023       0.000611
     14 C                     0.103212       0.329367
     15 H                     0.256244      -0.016461
     16 S                    -0.022463      -0.047368
  --------------------------------------------------------
  Sum of atomic charges =     1.000000
  Sum of spin   charges =     1.000000

 -----------------------------------------------------------------
                    Cartesian Multipole Moments
 -----------------------------------------------------------------
    Charge (ESU x 10^10)
                 4.8032
    Dipole Moment (Debye)
         X      -3.3109      Y       0.1656      Z     -10.1061
       Tot      10.6359
    Quadrupole Moments (Debye-Ang)
        XX     -30.7429     XY      -0.3450     YY     -73.2390
        XZ      21.9365     YZ      -1.6189     ZZ     -25.4644
    Octopole Moments (Debye-Ang^2)
       XXX      66.9859    XXY      -6.7077    XYY      50.2757
       YYY     -16.8891    XXZ      43.6746    XYZ       3.4599
       YYZ     153.6601    XZZ     -45.2740    YZZ       3.2618
       ZZZ     249.9963
    Hexadecapole Moments (Debye-Ang^3)
      XXXX   -1123.8240   XXXY      23.2578   XXYY    -315.8570
      XYYY      21.5059   YYYY     -94.2109   XXXZ    -326.8890
      XXYZ      11.7870   XYYZ    -230.9237   YYYZ      60.7649
      XXZZ    -353.8557   XYZZ     -14.7695   YYZZ    -535.7104
      XZZZ    -179.2636   YZZZ      12.4220   ZZZZ   -2071.5741
 -----------------------------------------------------------------
 Calculating analytic gradient of the SCF energy
 Gradient of SCF Energy
            1           2           3           4           5           6
    1   0.0000123  -0.0000576   0.0000226   0.0000276   0.0000010  -0.0000410
    2  -0.0000063  -0.0000227   0.0000068   0.0000115  -0.0000095  -0.0013952
    3  -0.0000082   0.0000104  -0.0000136  -0.0000246   0.0000049   0.0000284
            7           8           9          10          11          12
    1  -0.0000275   0.0001799  -0.0002212   0.0000837   0.0000279  -0.0000281
    2  -0.0000388   0.0014444   0.0014142  -0.0013765  -0.0000343   0.0000145
    3  -0.0000090  -0.0001446   0.0003084  -0.0001854   0.0000052   0.0000250
           13          14          15          16
    1  -0.0000012   0.0000578  -0.0000230  -0.0000132
    2   0.0000002  -0.0000144   0.0000119  -0.0000059
    3  -0.0000053  -0.0000142   0.0000145   0.0000082
 Max gradient component =       1.444E-03
 RMS gradient           =       4.130E-04
 Gradient time:  CPU 1.92 s  wall 1.93 s
 Geometry Optimization Parameters
   NAtoms,    NIC,     NZ,  NCons,   NDum,   NFix, NCnnct, MaxDiis
       16     111       0       1       0       0       0       0

 Cartesian Hessian Update
 Hessian Updated using BFGS Update


** CONSTRAINED OPTIMIZATION IN DELOCALIZED INTERNAL COORDINATES **
   Searching for a Minimum

   Optimization Cycle:   7

                       Coordinates (Angstroms)
     ATOM                X               Y               Z
      1  S        -0.0220688773    0.0546983584    0.0173504193
      2  C         1.6908788471   -0.0110557943   -0.0124869457
      3  H         2.2429694419   -0.0374664645    0.9194951513
      4  C         2.2205257649   -0.0162275307   -1.3050921028
      5  H         3.2838596271   -0.0620954224   -1.5064238926
      6  C         1.2319490824    0.0361394064   -2.2838775031
      7  H         1.4335862455    0.0317280836   -3.3491442187
      8  C        -0.0797919902    0.0836624839   -1.7505996558
      9  C        -1.3009616893    0.1051859400   -2.4504118344
     10  C        -2.6099115052   -0.0413710139   -1.9283280645
     11  H        -2.8097884807   -0.1718288957   -0.8706922186
     12  C        -3.5977467226   -0.0138931305   -2.9089071188
     13  H        -4.6589434900   -0.1143927697   -2.7162179696
     14  C        -3.0701835078    0.1519822616   -4.1916988731
     15  H        -3.6225037041    0.2134661065   -5.1219053624
     16  S        -1.3600255917    0.2731005514   -4.2105183205
   Point Group: c1    Number of degrees of freedom:    42


   Energy is  -1104.571937481

              Constraints and their Current Values
                                        Value     Constraint
   Dihedral:        6   8   9  10      170.000      170.000
 Hessian Updated using BFGS Update

 41 Hessian modes will be used to form the next step
  Hessian Eigenvalues:
     0.014507    0.038326    0.045000    0.045000    0.045000    0.045000
     0.045002    0.045004    0.045008    0.045011    0.045014    0.045168
     0.138891    0.159947    0.159993    0.160000    0.160025    0.161053
     0.220348    0.221303    0.237888    0.246732    0.249999    0.280962
     0.294452    0.296753    0.304187    0.312569    0.354779    0.355000
     0.355129    0.355268    0.358274    0.358930    0.379278    0.404945
     0.430129    0.455177    0.463585    0.489470    0.497936

 Minimum Search - Taking Simple RFO Step
 Searching for Lamda that Minimizes Along All modes
 Value Taken    Lamda =   0.00000000
 Step Taken.  Stepsize is  0.002513

                             Maximum     Tolerance    Cnvgd?
         Gradient           0.000044      0.000300     YES
         Displacement       0.001574      0.001200      NO
         Energy change     -0.000000      0.000001     YES

 Final energy is   -1104.57193748119     


 ******************************
 **  OPTIMIZATION CONVERGED  **
 ******************************

                       Coordinates (Angstroms)
     ATOM                X               Y               Z
      1  S        -0.0220688773    0.0546983584    0.0173504193
      2  C         1.6908788471   -0.0110557943   -0.0124869457
      3  H         2.2429694419   -0.0374664645    0.9194951513
      4  C         2.2205257649   -0.0162275307   -1.3050921028
      5  H         3.2838596271   -0.0620954224   -1.5064238926
      6  C         1.2319490824    0.0361394064   -2.2838775031
      7  H         1.4335862455    0.0317280836   -3.3491442187
      8  C        -0.0797919902    0.0836624839   -1.7505996558
      9  C        -1.3009616893    0.1051859400   -2.4504118344
     10  C        -2.6099115052   -0.0413710139   -1.9283280645
     11  H        -2.8097884807   -0.1718288957   -0.8706922186
     12  C        -3.5977467226   -0.0138931305   -2.9089071188
     13  H        -4.6589434900   -0.1143927697   -2.7162179696
     14  C        -3.0701835078    0.1519822616   -4.1916988731
     15  H        -3.6225037041    0.2134661065   -5.1219053624
     16  S        -1.3600255917    0.2731005514   -4.2105183205

Z-matrix Print:
$molecule
1 2
S 
C  1 1.714545
H  2 1.083569 1 119.668942
C  2 1.396922 1 113.276114 3 -179.614859 0
H  4 1.083221 2 122.980328 1 -179.553982 0
C  4 1.392160 2 112.406648 1 0.103272 0
H  6 1.084234 4 123.962181 2 -179.337171 0
C  6 1.416827 4 113.200773 2 0.040339 0
C  8 1.407642 6 128.075447 4 -177.996917 0
C  9 1.416795 8 128.067426 6 170.000000 0
H  10 1.084191 9 122.830325 8 1.355745 0
C  10 1.392138 9 113.208851 8 -178.085398 0
H  12 1.083198 10 124.611201 9 179.706198 0
C  12 1.396918 10 112.407876 9 0.048859 0
H  14 1.083555 12 127.057132 10 -179.491032 0
S  14 1.714469 12 113.269910 10 0.118048 0
$end

 
 --------------------------------------------------------------
 
                    Orbital Energies (a.u.)
 --------------------------------------------------------------
 
 Alpha MOs
 -- Occupied --
-89.098 -89.098 -10.432 -10.431 -10.418 -10.418 -10.392 -10.392
-10.380 -10.380  -8.157  -8.157  -6.122  -6.122  -6.118  -6.118
 -6.114  -6.114  -1.086  -1.061  -0.959  -0.934  -0.921  -0.880
 -0.789  -0.759  -0.723  -0.713  -0.702  -0.650  -0.595  -0.593
 -0.589  -0.586  -0.579  -0.555  -0.553  -0.535  -0.520  -0.472
 -0.443  -0.436  -0.391
 -- Virtual --
 -0.249  -0.178  -0.161  -0.153  -0.129  -0.125  -0.115  -0.107
 -0.100  -0.100  -0.092  -0.092  -0.078  -0.075  -0.067  -0.053
 -0.051  -0.040  -0.036  -0.028  -0.020  -0.015  -0.011  -0.009
 -0.008   0.005   0.011   0.011   0.016   0.021   0.023   0.024
  0.029   0.034   0.038   0.040   0.043   0.047   0.054   0.059
  0.070   0.075   0.080   0.082   0.089   0.100   0.103   0.106
  0.110   0.123   0.123   0.139   0.144   0.152   0.158   0.173
  0.182   0.184   0.209   0.212   0.213   0.239   0.241   0.244
  0.299   0.315   0.355   0.359   0.380   0.398   0.415   0.434
  0.444   0.470   0.475   0.479   0.483   0.485   0.506   0.526
  0.547   0.547   0.561   0.572   0.575   0.579   0.609   0.616
  0.647   0.649   0.652   0.676   0.698   0.751   0.771   0.779
  0.786   0.786   0.803   0.819   0.821   0.833   0.840   0.850
  0.863   0.874   0.911   0.930   0.934   0.961   0.980   1.002
  1.010   1.016   1.053   1.081   1.093   1.151   1.163   1.166
  1.172   1.175   1.194   1.292   1.297   1.314   1.368   1.437
  1.484   1.509   1.535   1.643   1.670   1.676   1.731   1.734
  1.752   1.781   1.785   1.845   1.870   1.880   1.890   1.944
  1.978   2.006   2.010   2.030   2.065   2.076   2.156   2.194
  2.200   2.251   2.270   2.270   2.298   2.322   2.327   2.352
  2.361   2.376   2.407   2.429   2.499   2.518   2.543   2.578
  2.683   2.696   2.754   2.761   2.970   3.033   3.105   3.113
  3.223   3.247   3.550   3.570   3.798   3.809   4.048   4.094
  4.134   4.141   4.228   4.343   4.485   4.536
 
 Beta MOs
 -- Occupied --
-89.098 -89.098 -10.430 -10.429 -10.414 -10.414 -10.390 -10.390
-10.380 -10.380  -8.158  -8.158  -6.122  -6.122  -6.118  -6.118
 -6.115  -6.115  -1.080  -1.055  -0.952  -0.932  -0.919  -0.870
 -0.784  -0.755  -0.719  -0.710  -0.700  -0.647  -0.594  -0.587
 -0.584  -0.579  -0.577  -0.551  -0.539  -0.534  -0.519  -0.445
 -0.439  -0.432
 -- Virtual --
 -0.326  -0.227  -0.163  -0.159  -0.150  -0.125  -0.116  -0.113
 -0.100  -0.099  -0.095  -0.091  -0.091  -0.077  -0.074  -0.066
 -0.052  -0.049  -0.039  -0.035  -0.027  -0.018  -0.014  -0.010
 -0.008  -0.008   0.006   0.012   0.012   0.017   0.022   0.024
  0.025   0.032   0.035   0.038   0.042   0.043   0.048   0.054
  0.061   0.072   0.076   0.082   0.083   0.092   0.101   0.103
  0.106   0.112   0.124   0.125   0.139   0.144   0.153   0.158
  0.175   0.183   0.186   0.211   0.213   0.215   0.240   0.243
  0.247   0.299   0.316   0.355   0.359   0.382   0.399   0.416
  0.436   0.445   0.471   0.482   0.484   0.493   0.495   0.507
  0.528   0.548   0.551   0.563   0.577   0.581   0.585   0.611
  0.618   0.652   0.652   0.657   0.682   0.700   0.752   0.777
  0.780   0.788   0.790   0.805   0.820   0.823   0.834   0.842
  0.851   0.865   0.875   0.912   0.932   0.935   0.963   0.985
  1.006   1.014   1.020   1.056   1.090   1.096   1.153   1.169
  1.169   1.180   1.181   1.202   1.300   1.301   1.318   1.372
  1.441   1.495   1.524   1.546   1.650   1.673   1.682   1.732
  1.736   1.759   1.785   1.787   1.850   1.874   1.885   1.899
  1.949   1.988   2.017   2.018   2.034   2.076   2.083   2.162
  2.197   2.203   2.253   2.277   2.277   2.299   2.326   2.334
  2.353   2.366   2.381   2.411   2.433   2.502   2.522   2.548
  2.581   2.686   2.701   2.755   2.763   2.971   3.034   3.106
  3.114   3.224   3.249   3.551   3.572   3.798   3.810   4.054
  4.101   4.138   4.144   4.235   4.350   4.489   4.539
 --------------------------------------------------------------
 
          Ground-State Mulliken Net Atomic Charges

     Atom                 Charge (a.u.)    Spin (a.u.)
  --------------------------------------------------------
      1 S                    -0.022539      -0.047388
      2 C                     0.103992       0.329429
      3 H                     0.256322      -0.016455
      4 C                    -0.335857      -0.034819
      5 H                     0.175943       0.000608
      6 C                     0.436887       0.146451
      7 H                     0.154647      -0.009925
      8 C                    -0.270405       0.132148
      9 C                    -0.267484       0.131968
     10 C                     0.435654       0.146551
     11 H                     0.154801      -0.009930
     12 C                    -0.334976      -0.034787
     13 H                     0.176023       0.000611
     14 C                     0.103212       0.329367
     15 H                     0.256244      -0.016461
     16 S                    -0.022463      -0.047368
  --------------------------------------------------------
  Sum of atomic charges =     1.000000
  Sum of spin   charges =     1.000000

 -----------------------------------------------------------------
                    Cartesian Multipole Moments
 -----------------------------------------------------------------
    Charge (ESU x 10^10)
                 4.8032
    Dipole Moment (Debye)
         X      -3.3109      Y       0.1656      Z     -10.1061
       Tot      10.6359
    Quadrupole Moments (Debye-Ang)
        XX     -30.7429     XY      -0.3450     YY     -73.2390
        XZ      21.9365     YZ      -1.6189     ZZ     -25.4644
    Octopole Moments (Debye-Ang^2)
       XXX      66.9859    XXY      -6.7077    XYY      50.2757
       YYY     -16.8891    XXZ      43.6746    XYZ       3.4599
       YYZ     153.6601    XZZ     -45.2740    YZZ       3.2618
       ZZZ     249.9963
    Hexadecapole Moments (Debye-Ang^3)
      XXXX   -1123.8240   XXXY      23.2578   XXYY    -315.8570
      XYYY      21.5059   YYYY     -94.2109   XXXZ    -326.8890
      XXYZ      11.7870   XYYZ    -230.9237   YYYZ      60.7649
      XXZZ    -353.8557   XYZZ     -14.7695   YYZZ    -535.7104
      XZZZ    -179.2636   YZZZ      12.4220   ZZZZ   -2071.5741
 -----------------------------------------------------------------
Archival summary:
1\1\nid00808\OPT\ProcedureUnspecified\BasisUnspecified\286(1+,2)\bwood\WedMay3102:27:042017WedMay3102:27:042017\0\\#,OPT,ProcedureUnspecified,BasisUnspecified,\\1,2\S\C,1,1.71454\H,2,1.08357,1,119.669\C,2,1.39692,1,113.276,3,-179.615,0\H,4,1.08322,2,122.98,1,-179.554,0\C,4,1.39216,2,112.407,1,0.103272,0\H,6,1.08423,4,123.962,2,-179.337,0\C,6,1.41683,4,113.201,2,0.0403388,0\C,8,1.40764,6,128.075,4,-177.997,0\C,9,1.4168,8,128.067,6,170,0\H,10,1.08419,9,122.83,8,1.35575,0\C,10,1.39214,9,113.209,8,-178.085,0\H,12,1.0832,10,124.611,9,179.706,0\C,12,1.39692,10,112.408,9,0.0488586,0\H,14,1.08356,12,127.057,10,-179.491,0\S,14,1.71447,12,113.27,10,0.118048,0\\\@

 Total job time:  73.74s(wall), 72.37s(cpu) 
 Wed May 31 02:27:04 2017

        *************************************************************
        *                                                           *
        *  Thank you very much for using Q-Chem.  Have a nice day.  *
        *                                                           *
        *************************************************************


0 sent ACK to 0 
now end server 0 ... 
