srun -N 1 --ntasks-per-node 16 --cpus-per-task 4 --cpu_bind=cores --nodelist nid00813 /global/project/projectdirs/jcesr/qchem/qc44/cnl_qc441/dist/exe/qcprog.cori.haswell.exe .pt_n2_cation_60.0.in.26327.qcin.1 /global/cscratch1/sd/bwood/qchem/nx/qchem26327/
Process 0 of 16 is on nid00813 - thread support 0
Process 1 of 16 is on nid00813 - thread support 0
Process 2 of 16 is on nid00813 - thread support 0
Process 3 of 16 is on nid00813 - thread support 0
Process 4 of 16 is on nid00813 - thread support 0
Process 5 of 16 is on nid00813 - thread support 0
Process 6 of 16 is on nid00813 - thread support 0
initial socket setup ...start
Process 15 of 16 is on nid00813 - thread support 0
initial socket setup ...done 
now start server 0 ... 
nid00813 10.128.3
Q-Chem Developer Version! Running on 10.128.3.*
                  Welcome to Q-Chem
     A Quantum Leap Into The Future Of Chemistry


 Q-Chem 4.4, Q-Chem, Inc., Pleasanton, CA (2016)

 Y. Shao,  Z. Gan,  E. Epifanovsky,  A. T. B. Gilbert,  M. Wormit,  
 J. Kussmann,  A. W. Lange,  A. Behn,  J. Deng,  X. Feng,  D. Ghosh,  
 M. Goldey,  P. R. Horn,  L. D. Jacobson,  I. Kaliman,  F. Rob,  
 R. Z. Khaliullin,  T. Kus,  A. Landau,  J. Liu,  E. I. Proynov,  Y. M. Rhee,  
 R. M. Richard,  M. A. Rohrdanz,  R. P. Steele,  E. J. Sundstrom,  
 H. L. Woodcock III,  P. M. Zimmerman,  D. Zuev,  B. Albrecht,  E. Alguire,  
 B. Austin,  S. A. Baeppler,  G. J. O. Beran,  Y. A. Bernard,  
 E. J. Berquist,  K. Brandhorst,  K. B. Bravaya,  S. T. Brown,  D. Casanova,  
 C.-M. Chang,  Y. Chen,  S. H. Chien,  K. D. Closser,  M. P. Coons,  
 D. L. Crittenden,  S. Dasgupta,  M. Diedenhofen,  R. A. DiStasio Jr.,  
 H. Do,  A. D. Dutoi,  R. G. Edgar,  P.-T. Fang,  S. Fatehi,  Q. Feng,  
 L. Fusti-Molnar,  A. Ghysels,  A. Golubeva-Zadorozhnaya,  J. Gomes,  
 A. Gunina,  M. W. D. Hanson-Heine,  P. H. P. Harbach,  A. W. Hauser,  
 J. E. Herr,  E. G. Hohenstein,  Z. C. Holden,  K. Hui,  T.-C. Jagau,  H. Ji,  
 B. Kaduk,  K. Khistyaev,  Jaehoon Kim,  Jihan Kim,  R. A. King,  
 P. Klunzinger,  K. Koh,  D. Kosenkov,  T. Kowalczyk,  C. M. Krauter,  
 A. Kunitsa,  K. U. Lao,  A. Laurent,  K. V. Lawler,  J. Lee,  D. Lefrancois,  
 S. Lehtola,  S. V. Levchenko,  C. Y. Lin,  Y.-S. Lin,  F. Liu,  E. Livshits,  
 R. C. Lochan,  A. Luenser,  P. Manohar,  S. F. Manzer,  S.-P. Mao,  Y. Mao,  
 N. Mardirossian,  A. V. Marenich,  L. A. Martinez-Martinez,  S. A. Maurer,  
 N. J. Mayhall,  J.-M. Mewes,  A. F. Morrison,  K. Nanda,  T. S. Nguyen-Beck,  
 C. M. Oana,  R. Olivares-Amaya,  D. P. O'Neill,  J. A. Parkhill,  
 T. M. Perrine,  R. Peverati,  P. A. Pieniazek,  F. Plasser,  A. Prociuk,  
 D. R. Rehn,  E. Rosta,  N. J. Russ,  N. Sergueev,  S. M. Sharada,  
 S. Sharma,  D. W. Small,  A. Sodt,  T. Stauch,  T. Stein,  D. Stuck,  
 Y.-C. Su,  A. J. W. Thom,  T. Tsuchimochi,  L. Vogt,  O. Vydrov,  T. Wang,  
 M. A. Watson,  J. Wenzel,  A. White,  C. F. Williams,  V. Vanovschi,  
 K. Yao,  S. Yeganeh,  S. R. Yost,  Z.-Q. You,  I. Y. Zhang,  X. Zhang,  
 Y. Zhao,  B. R. Brooks,  G. K. L. Chan,  D. M. Chipman,  C. J. Cramer,  
 W. A. Goddard III,  M. S. Gordon,  W. J. Hehre,  A. Klamt,  
 H. F. Schaefer III,  M. W. Schmidt,  C. D. Sherrill,  D. G. Truhlar,  
 A. Warshel,  X. Xu,  A. Aspuru-Guzik,  R. Baer,  A. T. Bell,  N. A. Besley,  
 J.-D. Chai,  A. Dreuw,  B. D. Dunietz,  T. R. Furlani,  S. R. Gwaltney,  
 C.-P. Hsu,  Y. Jung,  J. Kong,  D. S. Lambrecht,  W. Liang,  C. Ochsenfeld,  
 V. A. Rassolov,  L. V. Slipchenko,  J. E. Subotnik,  T. Van Voorhis,  
 J. M. Herbert,  A. I. Krylov,  P. M. W. Gill,  M. Head-Gordon

 Contributors to earlier versions of Q-Chem not listed above: 
 R. D. Adamson,  J. Baker,  E. F. C. Byrd,  A. K. Chakraborty,  C.-L. Cheng,  
 H. Dachsel,  R. J. Doerksen,  G. Hawkins,  A. Heyden,  S. Hirata,  
 G. Kedziora,  F. J. Keil,  C. Kelley,  P. P. Korambath,  W. Kurlancheek,  
 A. M. Lee,  M. S. Lee,  D. Liotard,  I. Lotan,  P. E. Maslen,  N. Nair,  
 D. Neuhauser,  R. Olson,  B. Peters,  J. Ritchie,  N. E. Schultz,  
 N. Shenvi,  A. C. Simmonett,  K. S. Thanthiriwatte,  Q. Wu,  W. Zhang

 Please cite Q-Chem as follows:
 Y. Shao et al., Mol. Phys. 113, 184-215 (2015)
 DOI: 10.1080/00268976.2014.952696

 Q-Chem 4.4.2 for Intel X86 EM64T Linux

 Parts of Q-Chem use Armadillo 5.200.1 (Boston Tea Smuggler).
 http://arma.sourceforge.net/

 Q-Chem begins on Wed May 31 02:25:50 2017  

Host: nid00776
0

     Scratch files written to /global/cscratch1/sd/bwood/qchem/nx/qchem26327.0//
 Parallel job on  16  processors

Checking the input file for inconsistencies... 	...done.

--------------------------------------------------------------
User input:
--------------------------------------------------------------
$molecule
 1  2
 S           0.00238887        0.06077275        0.00183269
 C           1.73707619        0.03315849        0.00323229
 H           2.27612737        0.05289032        0.94042557
 C           2.24169204       -0.01546201       -1.26965798
 H           3.30285780       -0.04005365       -1.48972496
 C           1.22479222       -0.01612968       -2.26811464
 H           1.42674790       -0.02650987       -3.33334501
 C          -0.05393771        0.02880388       -1.75170966
 C          -1.32450815        0.04889988       -2.45636342
 C          -1.84896350       -0.88386434       -3.32753271
 H          -1.33417198       -1.80358406       -3.58233340
 C          -3.13730338       -0.53463658       -3.82663696
 H          -3.70502117       -1.15089060       -4.51440301
 C          -3.59206785        0.66046551       -3.33464667
 H          -4.53097300        1.15756333       -3.53671634
 S          -2.44010311        1.38996011       -2.26210290
$end


$rem
         jobtype = opt
        exchange = b3lyp
           basis = 6-31++g**
  max_scf_cycles = 150
      mem_static = 775
       mem_total = 7750
      sym_ignore = true
        symmetry = false
          thresh = 12
$end


$opt
CONSTRAINT
tors 6 8 9 10 60.0
ENDCONSTRAINT
$end

--------------------------------------------------------------
 ----------------------------------------------------------------
             Standard Nuclear Orientation (Angstroms)
    I     Atom           X                Y                Z
 ----------------------------------------------------------------
    1      S       0.0023888700     0.0607727500     0.0018326900
    2      C       1.7370761900     0.0331584900     0.0032322900
    3      H       2.2761273700     0.0528903200     0.9404255700
    4      C       2.2416920400    -0.0154620100    -1.2696579800
    5      H       3.3028578000    -0.0400536500    -1.4897249600
    6      C       1.2247922200    -0.0161296800    -2.2681146400
    7      H       1.4267479000    -0.0265098700    -3.3333450100
    8      C      -0.0539377100     0.0288038800    -1.7517096600
    9      C      -1.3245081500     0.0488998800    -2.4563634200
   10      C      -1.8489635000    -0.8838643400    -3.3275327100
   11      H      -1.3341719800    -1.8035840600    -3.5823334000
   12      C      -3.1373033800    -0.5346365800    -3.8266369600
   13      H      -3.7050211700    -1.1508906000    -4.5144030100
   14      C      -3.5920678500     0.6604655100    -3.3346466700
   15      H      -4.5309730000     1.1575633300    -3.5367163400
   16      S      -2.4401031100     1.3899601100    -2.2621029000
 ----------------------------------------------------------------
 Nuclear Repulsion Energy =   630.2118578994 hartrees
 There are       43 alpha and       42 beta electrons
 Requested basis set is 6-31++G(d,p)
 There are 76 shells and 234 basis functions

 Total QAlloc Memory Limit   7750 MB
 Mega-Array Size       758 MB
 MEM_STATIC part       775 MB
 A cutoff of  1.0D-12 yielded   2523 shell pairs
 There are     24905 function pairs

 Q-Chem warning in module /project/projectdirs/jcesr/qchem/qc44/cnl_qc441/compile/cori/qc_src/libqints/qchem/aobasis.C, line 68:

 Using reconstructed effective core potential

 
 -------------------------------------------------------
 OpenMP Integral Computing Module                       
 Release: version 1.0, May 2013, Q-Chem Inc. Pittsburgh 
 -------------------------------------------------------
 Integral Job Info:
 Integral job number is                      11
 Integral operator is                         1
 short-range coefficients                     0
 long-range coefficients              100000000
 Omega coefficients                           0
 if combine SR and LR in K                    0
 Integral screening is                        0
 Integral computing path is                   2
 max size of driver memory is            800000
 size of driver memory is                593474
 size of scratch memory is             15166112
 max col of scratch BK array               1296
 max len of scratch array in speh3          155
 max len of scratch index in speh4           18
 max int batch size is                      520
 min int batch size is                       52
 fixed nKL is                                52
 max L of basis functions is                  2
 order of int derivative is                   0
 number of shells is                         76
 number of basis is                         234
 number of cartesian basis is               234
 number of contracted shell pairs          2523
 number of primitive shell pairs           8219
 maxK2 (contraction) of shell pair           36
 max number of K2 of shell pair               1
 max number of CS2 of shell pair            260
 max number of PS2 of shell pair           1500
 mem total for path MDJ                   51992
 -------------------------------------------------------
 Smallest overlap matrix eigenvalue = 1.14E-06

 Scale SEOQF with 1.000000e-01/1.000000e-01/1.000000e-01

 Standard Electronic Orientation quadrupole field applied
 Nucleus-field energy     =    -0.0000000324 hartrees
 Guess from superposition of atomic densities
 Warning:  Energy on first SCF cycle will be non-variational
 An unrestricted hybrid HF-DFT SCF calculation will be
 performed using Pulay DIIS extrapolation
 Exchange:     0.2000 Hartree-Fock + 0.0800 Slater + 0.7200 B88
 Correlation:  0.1900 VWN1RPA + 0.8100 LYP
 Using SG-1 standard quadrature grid
 SCF converges when DIIS error is below 1.0E-08
 Inaccurate integrated density:
   Number of electrons =    85
   Numerical integral  =    86.000480707312
   Relative error      =     1.1770361262 %
 ---------------------------------------
  Cycle       Energy         DIIS Error
 ---------------------------------------
    1   -1107.1578486522      4.39E-02
    2   -1104.4390014268      3.73E-03
    3   -1104.2208943325      6.23E-03
    4   -1104.5426629261      7.98E-04
    5   -1104.5455147295      5.82E-04
    6   -1104.5480385854      2.46E-04
    7   -1104.5485958975      8.00E-05
    8   -1104.5486793166      3.15E-05
    9   -1104.5487089062      2.06E-05
   10   -1104.5487355328      9.13E-06
   11   -1104.5487523259      4.22E-06
   12   -1104.5487545523      2.73E-06
   13   -1104.5487550909      1.10E-06
   14   -1104.5487552464      2.94E-07
   15   -1104.5487552573      1.82E-07
   16   -1104.5487552602      4.07E-08
   17   -1104.5487552607      2.11E-08
   18   -1104.5487552599      1.45E-08
   19   -1104.5487552600      9.46E-09 Convergence criterion met
 ---------------------------------------
 <S^2> = 0.7606
 SCF time:  CPU 12.84 s  wall 12.33 s
 SCF   energy in the final basis set = -1104.5487552600
 Total energy in the final basis set = -1104.5487552600
 
 --------------------------------------------------------------
 
                    Orbital Energies (a.u.)
 --------------------------------------------------------------
 
 Alpha MOs
 -- Occupied --
-89.094 -89.094 -10.433 -10.433 -10.417 -10.416 -10.391 -10.391
-10.381 -10.381  -8.153  -8.153  -6.117  -6.117  -6.113  -6.113
 -6.110  -6.110  -1.087  -1.063  -0.959  -0.923  -0.917  -0.892
 -0.785  -0.750  -0.737  -0.710  -0.698  -0.652  -0.598  -0.594
 -0.592  -0.582  -0.576  -0.556  -0.553  -0.523  -0.520  -0.453
 -0.436  -0.430  -0.418
 -- Virtual --
 -0.228  -0.200  -0.156  -0.143  -0.133  -0.131  -0.124  -0.107
 -0.094  -0.093  -0.091  -0.085  -0.080  -0.078  -0.065  -0.063
 -0.048  -0.042  -0.034  -0.026  -0.026  -0.019  -0.017  -0.004
 -0.002   0.002   0.006   0.007   0.014   0.015   0.022   0.025
  0.027   0.029   0.030   0.036   0.040   0.049   0.054   0.059
  0.061   0.065   0.069   0.077   0.080   0.094   0.095   0.109
  0.113   0.116   0.123   0.139   0.141   0.145   0.147   0.159
  0.164   0.176   0.177   0.192   0.217   0.228   0.234   0.250
  0.280   0.298   0.312   0.344   0.362   0.371   0.394   0.413
  0.418   0.437   0.452   0.476   0.483   0.488   0.499   0.506
  0.532   0.537   0.559   0.564   0.571   0.587   0.589   0.600
  0.615   0.634   0.638   0.659   0.675   0.728   0.736   0.768
  0.784   0.793   0.799   0.806   0.810   0.836   0.837   0.844
  0.858   0.864   0.878   0.894   0.916   0.928   0.932   0.944
  0.966   1.011   1.028   1.049   1.071   1.113   1.149   1.165
  1.171   1.187   1.188   1.212   1.276   1.287   1.324   1.354
  1.393   1.506   1.508   1.600   1.611   1.685   1.705   1.710
  1.738   1.746   1.756   1.779   1.844   1.847   1.891   1.895
  1.955   1.981   2.003   2.030   2.033   2.066   2.067   2.140
  2.198   2.203   2.254   2.268   2.287   2.298   2.321   2.338
  2.342   2.361   2.413   2.418   2.441   2.464   2.521   2.536
  2.583   2.620   2.692   2.710   2.766   2.978   3.016   3.109
  3.110   3.234   3.257   3.548   3.572   3.785   3.810   4.082
  4.132   4.133   4.150   4.239   4.348   4.478   4.534
 
 Beta MOs
 -- Occupied --
-89.094 -89.094 -10.431 -10.430 -10.413 -10.413 -10.390 -10.389
-10.380 -10.380  -8.153  -8.153  -6.118  -6.118  -6.114  -6.113
 -6.110  -6.110  -1.080  -1.057  -0.951  -0.921  -0.914  -0.882
 -0.781  -0.746  -0.732  -0.707  -0.696  -0.650  -0.595  -0.589
 -0.585  -0.578  -0.573  -0.546  -0.541  -0.522  -0.518  -0.433
 -0.428  -0.423
 -- Virtual --
 -0.354  -0.210  -0.184  -0.152  -0.140  -0.125  -0.123  -0.121
 -0.106  -0.094  -0.091  -0.089  -0.084  -0.078  -0.077  -0.064
 -0.062  -0.046  -0.041  -0.034  -0.025  -0.025  -0.018  -0.016
 -0.003  -0.001   0.003   0.008   0.008   0.014   0.018   0.024
  0.026   0.028   0.030   0.032   0.036   0.042   0.050   0.056
  0.061   0.062   0.066   0.070   0.079   0.081   0.095   0.096
  0.110   0.113   0.117   0.125   0.140   0.141   0.147   0.149
  0.162   0.167   0.178   0.179   0.193   0.219   0.230   0.236
  0.252   0.282   0.300   0.314   0.346   0.364   0.371   0.395
  0.415   0.420   0.438   0.453   0.480   0.492   0.492   0.508
  0.509   0.534   0.539   0.562   0.565   0.574   0.593   0.594
  0.605   0.617   0.636   0.643   0.664   0.679   0.730   0.738
  0.774   0.786   0.795   0.802   0.808   0.812   0.837   0.838
  0.848   0.860   0.866   0.881   0.895   0.917   0.930   0.935
  0.945   0.970   1.015   1.033   1.054   1.073   1.117   1.152
  1.172   1.179   1.192   1.193   1.215   1.282   1.291   1.329
  1.361   1.399   1.519   1.520   1.609   1.615   1.690   1.712
  1.713   1.740   1.752   1.758   1.785   1.849   1.851   1.894
  1.902   1.963   1.991   2.009   2.041   2.043   2.071   2.073
  2.144   2.201   2.206   2.259   2.275   2.290   2.302   2.325
  2.343   2.345   2.366   2.416   2.422   2.445   2.467   2.526
  2.540   2.588   2.624   2.694   2.712   2.769   2.979   3.018
  3.109   3.111   3.236   3.258   3.549   3.573   3.785   3.811
  4.089   4.135   4.139   4.154   4.245   4.355   4.482   4.538
 --------------------------------------------------------------
 
          Ground-State Mulliken Net Atomic Charges

     Atom                 Charge (a.u.)    Spin (a.u.)
  --------------------------------------------------------
      1 S                     0.101571      -0.049437
      2 C                     0.092527       0.289867
      3 H                     0.248517      -0.013501
      4 C                    -0.429426      -0.003545
      5 H                     0.172021      -0.000951
      6 C                     0.381274       0.090012
      7 H                     0.187025      -0.006479
      8 C                    -0.255835       0.194075
      9 C                    -0.250482       0.194298
     10 C                     0.380639       0.089546
     11 H                     0.186899      -0.006481
     12 C                    -0.428988      -0.003361
     13 H                     0.172072      -0.000959
     14 C                     0.092761       0.289671
     15 H                     0.248468      -0.013503
     16 S                     0.100958      -0.049252
  --------------------------------------------------------
  Sum of atomic charges =     1.000000
  Sum of spin   charges =     1.000000

 -----------------------------------------------------------------
                    Cartesian Multipole Moments
 -----------------------------------------------------------------
    Charge (ESU x 10^10)
                 4.8032
    Dipole Moment (Debye)
         X      -3.2140      Y       0.0555      Z     -10.2876
       Tot      10.7781
    Quadrupole Moments (Debye-Ang)
        XX     -30.2454     XY      -2.9676     YY     -66.7529
        XZ      24.4257     YZ       2.4295     ZZ     -31.1127
    Octopole Moments (Debye-Ang^2)
       XXX      87.8944    XXY       4.2454    XYY      39.9214
       YYY     -41.0831    XXZ      16.4338    XYZ       4.0123
       YYZ     116.7483    XZZ     -30.9281    YZZ     -29.2604
       ZZZ     266.1446
    Hexadecapole Moments (Debye-Ang^3)
      XXXX   -1291.5491   XXXY      20.7213   XXYY    -316.6285
      XYYY     101.6747   YYYY    -281.5643   XXXZ    -283.6604
      XXYZ     -18.2137   XYYZ    -177.7502   YYYZ      71.4952
      XXZZ    -259.8773   XYZZ      48.6091   YYZZ    -377.3642
      XZZZ    -337.5770   YZZZ     144.8002   ZZZZ   -1839.8467
 -----------------------------------------------------------------
 Calculating analytic gradient of the SCF energy
 Gradient of SCF Energy
            1           2           3           4           5           6
    1   0.0013988   0.0181278  -0.0007301   0.0010784   0.0003412  -0.0313510
    2  -0.0088062  -0.0008760   0.0026584  -0.0018569  -0.0011322   0.0101453
    3  -0.0122240  -0.0095765  -0.0012469   0.0299201   0.0006651   0.0026808
            7           8           9          10          11          12
    1  -0.0004611   0.0241251  -0.0138652   0.0150096   0.0002313  -0.0178713
    2   0.0001852   0.0018873  -0.0150842   0.0111661   0.0000137   0.0236875
    3  -0.0000434  -0.0048771  -0.0135846   0.0271887   0.0003579   0.0014847
           13          14          15          16
    1  -0.0001303  -0.0060502   0.0000935   0.0100535
    2   0.0009069  -0.0148497  -0.0018670  -0.0061781
    3  -0.0010055  -0.0128824   0.0023856  -0.0092425
 Max gradient component =       3.135E-02
 RMS gradient           =       1.164E-02
 Gradient time:  CPU 1.90 s  wall 1.93 s
 Geometry Optimization Parameters
   NAtoms,    NIC,     NZ,  NCons,   NDum,   NFix, NCnnct, MaxDiis
       16     111       0       1       0       0       0       0


** CONSTRAINED OPTIMIZATION IN DELOCALIZED INTERNAL COORDINATES **
   Searching for a Minimum

   Optimization Cycle:   1

                       Coordinates (Angstroms)
     ATOM                X               Y               Z
      1  S         0.0023888700    0.0607727500    0.0018326900
      2  C         1.7370761900    0.0331584900    0.0032322900
      3  H         2.2761273700    0.0528903200    0.9404255700
      4  C         2.2416920400   -0.0154620100   -1.2696579800
      5  H         3.3028578000   -0.0400536500   -1.4897249600
      6  C         1.2247922200   -0.0161296800   -2.2681146400
      7  H         1.4267479000   -0.0265098700   -3.3333450100
      8  C        -0.0539377100    0.0288038800   -1.7517096600
      9  C        -1.3245081500    0.0488998800   -2.4563634200
     10  C        -1.8489635000   -0.8838643400   -3.3275327100
     11  H        -1.3341719800   -1.8035840600   -3.5823334000
     12  C        -3.1373033800   -0.5346365800   -3.8266369600
     13  H        -3.7050211700   -1.1508906000   -4.5144030100
     14  C        -3.5920678500    0.6604655100   -3.3346466700
     15  H        -4.5309730000    1.1575633300   -3.5367163400
     16  S        -2.4401031100    1.3899601100   -2.2621029000
   Point Group: c1    Number of degrees of freedom:    42


   Energy is  -1104.548755260

              Constraints and their Current Values
                                        Value     Constraint
   Dihedral:        6   8   9  10       60.000       60.000

 Attempting to Generate Delocalized Internal Coordinates

 41 Hessian modes will be used to form the next step
  Hessian Eigenvalues:
     0.045000    0.045000    0.045000    0.045000    0.045000    0.045000
     0.045002    0.045002    0.045003    0.045004    0.045011    0.045012
     0.159943    0.159949    0.159991    0.159992    0.160000    0.160000
     0.221282    0.221282    0.237835    0.237839    0.250000    0.250000
     0.294264    0.294663    0.312518    0.312618    0.354736    0.354850
     0.355125    0.355132    0.358226    0.358329    0.378510    0.404854
     0.404909    0.463547    0.463616    0.497922    0.497945

 Minimum Search - Taking Simple RFO Step
 Searching for Lamda that Minimizes Along All modes
 Value Taken    Lamda =  -0.01233242
 Step Taken.  Stepsize is  0.289482

                             Maximum     Tolerance    Cnvgd?
         Gradient           0.027737      0.000300      NO
         Displacement       0.143940      0.001200      NO
         Energy change     *********      0.000001      NO


 New Cartesian Coordinates Obtained by Inverse Iteration

 Displacement from previous Coordinates is:  0.409699
 ----------------------------------------------------------------
             Standard Nuclear Orientation (Angstroms)
    I     Atom           X                Y                Z
 ----------------------------------------------------------------
    1      S      -0.0393978217     0.1359260225     0.0174129908
    2      C       1.6872635258     0.0545601642    -0.0148604282
    3      H       2.2309035868     0.0755789867     0.9219597145
    4      C       2.2171436906    -0.0234617512    -1.2992584904
    5      H       3.2789299260    -0.0578761699    -1.5133096050
    6      C       1.2217266148    -0.0536299514    -2.2840451896
    7      H       1.4213184433    -0.0911420135    -3.3491704548
    8      C      -0.0702943136     0.0136565433    -1.7422969503
    9      C      -1.3132610975     0.0688710384    -2.4567930708
   10      C      -1.8218026248    -0.8791963450    -3.3568280129
   11      H      -1.2937659911    -1.7856060531    -3.6314154572
   12      C      -3.0995898387    -0.5434570747    -3.8222480778
   13      H      -3.6670656757    -1.1501409965    -4.5182561775
   14      C      -3.5562707982     0.6582767836    -3.2897394279
   15      H      -4.4980371858     1.1533611757    -3.4939891993
   16      S      -2.4531679001     1.3856631210    -2.1749592736
 ----------------------------------------------------------------
 Nuclear Repulsion Energy =   631.2017129717 hartrees
 There are       43 alpha and       42 beta electrons
 Applying Cartesian multipole field
    Component          Value
    ---------          -----
     (2,0,0)        1.00000E-11
     (0,2,0)        2.00000E-11
     (0,0,2)       -3.00000E-11
 Nucleus-field energy     =    -0.0000000320 hartrees
 Requested basis set is 6-31++G(d,p)
 There are 76 shells and 234 basis functions
 A cutoff of  1.0D-12 yielded   2535 shell pairs
 There are     24971 function pairs

 Q-Chem warning in module /project/projectdirs/jcesr/qchem/qc44/cnl_qc441/compile/cori/qc_src/libqints/qchem/aobasis.C, line 68:

 Using reconstructed effective core potential

 Smallest overlap matrix eigenvalue = 1.10E-06
 Guess MOs from SCF MO coefficient file
 Reading MOs from coefficient file
 Reading MOs from coefficient file
 An unrestricted hybrid HF-DFT SCF calculation will be
 performed using Pulay DIIS extrapolation
 Exchange:     0.2000 Hartree-Fock + 0.0800 Slater + 0.7200 B88
 Correlation:  0.1900 VWN1RPA + 0.8100 LYP
 Using SG-1 standard quadrature grid
 SCF converges when DIIS error is below 1.0E-08
 Geometry optimization detected.  Setting ReadMinima to 0
 Setting SaveMinima to 0
 ---------------------------------------
  Cycle       Energy         DIIS Error
 ---------------------------------------
    1   -1104.4987596308      2.52E-03
    2   -1104.5537028349      4.88E-04
    3   -1104.5513875001      7.62E-04
    4   -1104.5556423055      1.01E-04
    5   -1104.5557040062      4.79E-05
    6   -1104.5557218601      1.44E-05
    7   -1104.5557237466      8.21E-06
    8   -1104.5557245918      1.82E-06
    9   -1104.5557247847      7.21E-07
   10   -1104.5557248849      6.27E-07
   11   -1104.5557249202      3.46E-07
   12   -1104.5557249441      1.82E-07
   13   -1104.5557249465      7.22E-08
   14   -1104.5557249464      4.01E-08
   15   -1104.5557249465      1.20E-08
   16   -1104.5557249467      3.06E-09 Convergence criterion met
 ---------------------------------------
 <S^2> = 0.7630
 SCF time:  CPU 11.03 s  wall 10.31 s
 SCF   energy in the final basis set = -1104.5557249467
 Total energy in the final basis set = -1104.5557249467
 
 --------------------------------------------------------------
 
                    Orbital Energies (a.u.)
 --------------------------------------------------------------
 
 Alpha MOs
 -- Occupied --
-89.098 -89.098 -10.431 -10.430 -10.417 -10.417 -10.390 -10.390
-10.379 -10.379  -8.156  -8.156  -6.121  -6.121  -6.117  -6.117
 -6.113  -6.113  -1.084  -1.059  -0.954  -0.929  -0.921  -0.881
 -0.784  -0.749  -0.734  -0.712  -0.699  -0.646  -0.593  -0.592
 -0.587  -0.580  -0.576  -0.554  -0.549  -0.533  -0.528  -0.451
 -0.439  -0.434  -0.407
 -- Virtual --
 -0.233  -0.203  -0.162  -0.145  -0.133  -0.132  -0.125  -0.106
 -0.095  -0.092  -0.091  -0.084  -0.081  -0.077  -0.066  -0.060
 -0.047  -0.041  -0.033  -0.027  -0.024  -0.020  -0.016  -0.004
 -0.001   0.004   0.007   0.008   0.013   0.015   0.021   0.025
  0.028   0.030   0.032   0.035   0.040   0.048   0.057   0.058
  0.061   0.064   0.069   0.080   0.084   0.094   0.095   0.108
  0.110   0.117   0.119   0.135   0.141   0.145   0.146   0.159
  0.173   0.181   0.181   0.196   0.216   0.224   0.231   0.248
  0.281   0.297   0.314   0.346   0.364   0.365   0.399   0.402
  0.410   0.436   0.455   0.465   0.485   0.491   0.500   0.505
  0.539   0.541   0.556   0.563   0.580   0.585   0.590   0.602
  0.614   0.629   0.639   0.657   0.674   0.725   0.733   0.766
  0.780   0.789   0.799   0.810   0.813   0.828   0.831   0.845
  0.856   0.865   0.879   0.890   0.907   0.922   0.932   0.946
  0.972   1.018   1.034   1.057   1.080   1.116   1.154   1.169
  1.170   1.185   1.188   1.206   1.259   1.293   1.309   1.360
  1.394   1.504   1.507   1.578   1.625   1.679   1.715   1.728
  1.741   1.752   1.768   1.781   1.845   1.851   1.891   1.896
  1.953   1.973   2.001   2.029   2.036   2.067   2.076   2.127
  2.199   2.206   2.255   2.258   2.287   2.299   2.323   2.336
  2.341   2.355   2.402   2.410   2.445   2.450   2.523   2.534
  2.596   2.618   2.691   2.708   2.759   2.976   3.010   3.106
  3.109   3.230   3.251   3.548   3.575   3.776   3.813   4.082
  4.126   4.138   4.153   4.241   4.345   4.484   4.538
 
 Beta MOs
 -- Occupied --
-89.098 -89.098 -10.428 -10.428 -10.413 -10.413 -10.389 -10.389
-10.379 -10.379  -8.157  -8.157  -6.121  -6.121  -6.117  -6.117
 -6.114  -6.114  -1.078  -1.053  -0.946  -0.927  -0.919  -0.870
 -0.779  -0.745  -0.729  -0.709  -0.697  -0.643  -0.589  -0.584
 -0.583  -0.576  -0.574  -0.543  -0.539  -0.533  -0.526  -0.436
 -0.433  -0.422
 -- Virtual --
 -0.341  -0.214  -0.189  -0.156  -0.142  -0.125  -0.122  -0.121
 -0.106  -0.095  -0.091  -0.090  -0.083  -0.080  -0.075  -0.065
 -0.059  -0.045  -0.040  -0.032  -0.026  -0.024  -0.019  -0.015
 -0.003  -0.000   0.005   0.008   0.010   0.014   0.018   0.023
  0.026   0.028   0.032   0.033   0.035   0.041   0.049   0.058
  0.060   0.062   0.065   0.069   0.081   0.085   0.095   0.096
  0.109   0.112   0.119   0.120   0.137   0.142   0.146   0.147
  0.161   0.176   0.183   0.183   0.197   0.217   0.226   0.232
  0.250   0.283   0.299   0.315   0.348   0.365   0.366   0.400
  0.405   0.411   0.437   0.456   0.467   0.495   0.496   0.509
  0.510   0.541   0.543   0.559   0.564   0.584   0.592   0.596
  0.605   0.616   0.631   0.645   0.663   0.679   0.726   0.735
  0.771   0.783   0.790   0.803   0.811   0.815   0.829   0.833
  0.848   0.859   0.866   0.881   0.891   0.909   0.923   0.934
  0.947   0.976   1.022   1.040   1.062   1.083   1.120   1.157
  1.176   1.179   1.190   1.192   1.210   1.265   1.298   1.315
  1.366   1.402   1.517   1.521   1.587   1.630   1.684   1.718
  1.735   1.744   1.756   1.773   1.786   1.850   1.856   1.895
  1.903   1.961   1.983   2.008   2.041   2.046   2.073   2.081
  2.132   2.203   2.209   2.261   2.264   2.290   2.301   2.326
  2.341   2.344   2.360   2.406   2.415   2.449   2.453   2.527
  2.538   2.601   2.622   2.694   2.709   2.762   2.977   3.011
  3.107   3.109   3.231   3.252   3.550   3.577   3.776   3.814
  4.089   4.133   4.141   4.156   4.247   4.352   4.488   4.541
 --------------------------------------------------------------
 
          Ground-State Mulliken Net Atomic Charges

     Atom                 Charge (a.u.)    Spin (a.u.)
  --------------------------------------------------------
      1 S                     0.118986      -0.048754
      2 C                     0.040516       0.305483
      3 H                     0.244754      -0.014879
      4 C                    -0.406809      -0.015537
      5 H                     0.171258       0.000096
      6 C                     0.344858       0.106215
      7 H                     0.189098      -0.007081
      8 C                    -0.204860       0.174679
      9 C                    -0.200504       0.174480
     10 C                     0.344624       0.106041
     11 H                     0.188998      -0.007089
     12 C                    -0.406037      -0.015448
     13 H                     0.171346       0.000093
     14 C                     0.040533       0.305247
     15 H                     0.244641      -0.014878
     16 S                     0.118598      -0.048665
  --------------------------------------------------------
  Sum of atomic charges =     1.000000
  Sum of spin   charges =     1.000000

 -----------------------------------------------------------------
                    Cartesian Multipole Moments
 -----------------------------------------------------------------
    Charge (ESU x 10^10)
                 4.8032
    Dipole Moment (Debye)
         X      -3.2886      Y       0.1544      Z     -10.1474
       Tot      10.6681
    Quadrupole Moments (Debye-Ang)
        XX     -31.3979     XY      -3.2351     YY     -66.5651
        XZ      23.2203     YZ       2.9386     ZZ     -31.5467
    Octopole Moments (Debye-Ang^2)
       XXX      92.9773    XXY       3.5328    XYY      40.1225
       YYY     -42.7987    XXZ      19.5678    XYZ       3.6161
       YYZ     115.6591    XZZ     -25.9758    YZZ     -32.3424
       ZZZ     264.0902
    Hexadecapole Moments (Debye-Ang^3)
      XXXX   -1296.4514   XXXY      23.3342   XXYY    -312.0524
      XYYY     102.4274   YYYY    -280.8483   XXXZ    -294.3326
      XXYZ     -16.6312   XYYZ    -173.2864   YYYZ      63.6851
      XXZZ    -271.8428   XYZZ      53.2814   YYZZ    -372.3502
      XZZZ    -339.4836   YZZZ     148.3807   ZZZZ   -1813.8894
 -----------------------------------------------------------------
 Calculating analytic gradient of the SCF energy
 Gradient of SCF Energy
            1           2           3           4           5           6
    1  -0.0082951   0.0026215  -0.0009679   0.0009861  -0.0001055  -0.0053913
    2  -0.0039888  -0.0028295   0.0019287  -0.0001264  -0.0007838   0.0091887
    3   0.0035053  -0.0052224   0.0001607   0.0036409  -0.0014721  -0.0021365
            7           8           9          10          11          12
    1   0.0015519   0.0118550  -0.0080601   0.0010283  -0.0011476  -0.0028545
    2   0.0004725  -0.0039948  -0.0008983  -0.0034697  -0.0009738   0.0024416
    3  -0.0001433   0.0030678  -0.0099879   0.0102162  -0.0005840  -0.0002726
           13          14          15          16
    1   0.0013037   0.0026210  -0.0002637   0.0051182
    2  -0.0007725  -0.0039422  -0.0003457   0.0080940
    3  -0.0007548  -0.0044619   0.0021151   0.0023294
 Max gradient component =       1.185E-02
 RMS gradient           =       4.316E-03
 Gradient time:  CPU 1.98 s  wall 1.91 s
 Geometry Optimization Parameters
   NAtoms,    NIC,     NZ,  NCons,   NDum,   NFix, NCnnct, MaxDiis
       16     111       0       1       0       0       0       0

 Cartesian Hessian Update
 Hessian Updated using BFGS Update


** CONSTRAINED OPTIMIZATION IN DELOCALIZED INTERNAL COORDINATES **
   Searching for a Minimum

   Optimization Cycle:   2

                       Coordinates (Angstroms)
     ATOM                X               Y               Z
      1  S        -0.0393978217    0.1359260225    0.0174129908
      2  C         1.6872635258    0.0545601642   -0.0148604282
      3  H         2.2309035868    0.0755789867    0.9219597145
      4  C         2.2171436906   -0.0234617512   -1.2992584904
      5  H         3.2789299260   -0.0578761699   -1.5133096050
      6  C         1.2217266148   -0.0536299514   -2.2840451896
      7  H         1.4213184433   -0.0911420135   -3.3491704548
      8  C        -0.0702943136    0.0136565433   -1.7422969503
      9  C        -1.3132610975    0.0688710384   -2.4567930708
     10  C        -1.8218026248   -0.8791963450   -3.3568280129
     11  H        -1.2937659911   -1.7856060531   -3.6314154572
     12  C        -3.0995898387   -0.5434570747   -3.8222480778
     13  H        -3.6670656757   -1.1501409965   -4.5182561775
     14  C        -3.5562707982    0.6582767836   -3.2897394279
     15  H        -4.4980371858    1.1533611757   -3.4939891993
     16  S        -2.4531679001    1.3856631210   -2.1749592736
   Point Group: c1    Number of degrees of freedom:    42


   Energy is  -1104.555724947

              Constraints and their Current Values
                                        Value     Constraint
   Dihedral:        6   8   9  10       60.000       60.000
 Hessian Updated using BFGS Update

 40 Hessian modes will be used to form the next step
  Hessian Eigenvalues:
     0.033119    0.045000    0.045000    0.045000    0.045000    0.045002
     0.045002    0.045004    0.045011    0.045012    0.045601    0.159825
     0.159947    0.159961    0.159992    0.160000    0.160450    0.221282
     0.221831    0.237837    0.244687    0.250000    0.283506    0.294453
     0.298669    0.312244    0.312571    0.354706    0.354831    0.355108
     0.355129    0.358213    0.358322    0.377101    0.404881    0.426987
     0.456616    0.463582    0.497933    0.513647

 Minimum Search - Taking Simple RFO Step
 Searching for Lamda that Minimizes Along All modes
 Value Taken    Lamda =  -0.00382800
 Step Taken.  Stepsize is  0.286758

                             Maximum     Tolerance    Cnvgd?
         Gradient           0.007866      0.000300      NO
         Displacement       0.192134      0.001200      NO
         Energy change     -0.006970      0.000001      NO


 New Cartesian Coordinates Obtained by Inverse Iteration

 Displacement from previous Coordinates is:  0.414179
 ----------------------------------------------------------------
             Standard Nuclear Orientation (Angstroms)
    I     Atom           X                Y                Z
 ----------------------------------------------------------------
    1      S      -0.0270847718     0.2112123230     0.0122733619
    2      C       1.6895675194     0.0931205328    -0.0077690325
    3      H       2.2388162157     0.1257981108     0.9266154426
    4      C       2.2184034627    -0.0400751747    -1.2951439782
    5      H       3.2813261025    -0.0877392808    -1.4985187057
    6      C       1.2264889464    -0.1072238711    -2.2737112325
    7      H       1.4188010156    -0.1846121047    -3.3373383917
    8      C      -0.0786289942    -0.0125776164    -1.7396077070
    9      C      -1.2982757626     0.0858724606    -2.4718902006
   10      C      -1.8085594421    -0.8494898496    -3.4005362274
   11      H      -1.2595027648    -1.7338317464    -3.7019231817
   12      C      -3.0957835846    -0.5331412627    -3.8358409055
   13      H      -3.6647390161    -1.1257859940    -4.5419641734
   14      C      -3.5784896531     0.6457176366    -3.2599300277
   15      H      -4.5273666547     1.1315683711    -3.4588472228
   16      S      -2.4903400781     1.3425709456    -2.1236649279
 ----------------------------------------------------------------
 Nuclear Repulsion Energy =   631.1948848640 hartrees
 There are       43 alpha and       42 beta electrons
 Applying Cartesian multipole field
    Component          Value
    ---------          -----
     (2,0,0)        1.00000E-11
     (0,2,0)        2.00000E-11
     (0,0,2)       -3.00000E-11
 Nucleus-field energy     =    -0.0000000318 hartrees
 Requested basis set is 6-31++G(d,p)
 There are 76 shells and 234 basis functions
 A cutoff of  1.0D-12 yielded   2536 shell pairs
 There are     24961 function pairs

 Q-Chem warning in module /project/projectdirs/jcesr/qchem/qc44/cnl_qc441/compile/cori/qc_src/libqints/qchem/aobasis.C, line 68:

 Using reconstructed effective core potential

 Smallest overlap matrix eigenvalue = 1.45E-06
 Guess MOs from SCF MO coefficient file
 Reading MOs from coefficient file
 Reading MOs from coefficient file
 An unrestricted hybrid HF-DFT SCF calculation will be
 performed using Pulay DIIS extrapolation
 Exchange:     0.2000 Hartree-Fock + 0.0800 Slater + 0.7200 B88
 Correlation:  0.1900 VWN1RPA + 0.8100 LYP
 Using SG-1 standard quadrature grid
 SCF converges when DIIS error is below 1.0E-08
 Geometry optimization detected.  Setting ReadMinima to 0
 Setting SaveMinima to 0
 ---------------------------------------
  Cycle       Energy         DIIS Error
 ---------------------------------------
    1   -1104.5081741041      2.23E-03
    2   -1104.5568042596      4.16E-04
    3   -1104.5538311869      7.39E-04
    4   -1104.5583714974      1.28E-04
    5   -1104.5584883346      4.65E-05
    6   -1104.5585043704      1.51E-05
    7   -1104.5585064524      5.08E-06
    8   -1104.5585067876      1.89E-06
    9   -1104.5585068913      6.04E-07
   10   -1104.5585069541      3.47E-07
   11   -1104.5585069788      1.92E-07
   12   -1104.5585069829      9.64E-08
   13   -1104.5585069834      4.75E-08
   14   -1104.5585069836      2.16E-08
   15   -1104.5585069836      5.52E-09 Convergence criterion met
 ---------------------------------------
 <S^2> = 0.7646
 SCF time:  CPU 10.40 s  wall 10.58 s
 SCF   energy in the final basis set = -1104.5585069836
 Total energy in the final basis set = -1104.5585069836
 
 --------------------------------------------------------------
 
                    Orbital Energies (a.u.)
 --------------------------------------------------------------
 
 Alpha MOs
 -- Occupied --
-89.098 -89.098 -10.431 -10.431 -10.417 -10.417 -10.391 -10.391
-10.379 -10.379  -8.157  -8.157  -6.121  -6.121  -6.117  -6.117
 -6.114  -6.114  -1.084  -1.059  -0.955  -0.930  -0.922  -0.880
 -0.785  -0.750  -0.732  -0.711  -0.698  -0.648  -0.593  -0.593
 -0.587  -0.579  -0.579  -0.555  -0.549  -0.534  -0.525  -0.455
 -0.439  -0.435  -0.402
 -- Virtual --
 -0.236  -0.202  -0.161  -0.139  -0.135  -0.131  -0.125  -0.106
 -0.096  -0.094  -0.091  -0.083  -0.082  -0.077  -0.067  -0.060
 -0.048  -0.042  -0.035  -0.027  -0.025  -0.020  -0.016  -0.004
 -0.001   0.005   0.008   0.008   0.014   0.014   0.020   0.025
  0.028   0.028   0.033   0.037   0.041   0.047   0.058   0.058
  0.059   0.063   0.069   0.081   0.085   0.093   0.095   0.109
  0.111   0.118   0.119   0.132   0.143   0.144   0.147   0.159
  0.177   0.181   0.181   0.195   0.217   0.222   0.230   0.248
  0.277   0.291   0.313   0.340   0.362   0.363   0.397   0.406
  0.409   0.440   0.457   0.459   0.485   0.490   0.499   0.502
  0.536   0.543   0.556   0.562   0.578   0.585   0.587   0.597
  0.619   0.626   0.636   0.656   0.673   0.722   0.733   0.770
  0.782   0.783   0.798   0.810   0.817   0.823   0.836   0.841
  0.853   0.874   0.884   0.886   0.908   0.925   0.928   0.947
  0.970   1.016   1.032   1.049   1.085   1.111   1.157   1.169
  1.170   1.178   1.187   1.205   1.244   1.300   1.301   1.363
  1.405   1.499   1.510   1.553   1.631   1.677   1.711   1.731
  1.745   1.754   1.777   1.777   1.838   1.846   1.880   1.897
  1.947   1.968   1.995   2.017   2.038   2.068   2.085   2.119
  2.198   2.205   2.248   2.261   2.288   2.298   2.321   2.336
  2.342   2.350   2.402   2.412   2.446   2.450   2.522   2.532
  2.595   2.612   2.689   2.705   2.753   2.974   3.010   3.106
  3.109   3.228   3.244   3.546   3.572   3.771   3.819   4.083
  4.122   4.136   4.151   4.240   4.343   4.482   4.532
 
 Beta MOs
 -- Occupied --
-89.098 -89.098 -10.429 -10.429 -10.413 -10.413 -10.389 -10.389
-10.379 -10.379  -8.157  -8.157  -6.121  -6.121  -6.118  -6.117
 -6.114  -6.114  -1.078  -1.053  -0.947  -0.927  -0.919  -0.869
 -0.780  -0.746  -0.727  -0.708  -0.697  -0.645  -0.590  -0.584
 -0.584  -0.577  -0.574  -0.543  -0.539  -0.533  -0.523  -0.436
 -0.435  -0.426
 -- Virtual --
 -0.336  -0.217  -0.188  -0.155  -0.136  -0.125  -0.125  -0.121
 -0.106  -0.095  -0.093  -0.089  -0.082  -0.080  -0.075  -0.066
 -0.058  -0.046  -0.040  -0.034  -0.027  -0.025  -0.019  -0.015
 -0.003  -0.001   0.006   0.008   0.010   0.015   0.017   0.022
  0.026   0.029   0.030   0.035   0.038   0.042   0.048   0.059
  0.059   0.061   0.064   0.070   0.082   0.086   0.093   0.095
  0.109   0.112   0.120   0.120   0.134   0.144   0.145   0.148
  0.160   0.179   0.183   0.183   0.196   0.218   0.224   0.231
  0.250   0.279   0.292   0.314   0.342   0.362   0.365   0.400
  0.407   0.411   0.441   0.458   0.460   0.494   0.496   0.507
  0.510   0.538   0.545   0.559   0.563   0.583   0.589   0.593
  0.599   0.621   0.627   0.642   0.662   0.677   0.724   0.734
  0.775   0.784   0.785   0.803   0.812   0.819   0.823   0.837
  0.844   0.856   0.876   0.886   0.887   0.910   0.926   0.930
  0.948   0.975   1.019   1.038   1.054   1.088   1.115   1.161
  1.175   1.176   1.181   1.193   1.209   1.251   1.305   1.307
  1.369   1.414   1.511   1.524   1.563   1.636   1.682   1.714
  1.737   1.748   1.756   1.782   1.784   1.843   1.851   1.884
  1.904   1.955   1.977   2.002   2.030   2.048   2.074   2.090
  2.124   2.202   2.208   2.254   2.267   2.291   2.300   2.325
  2.341   2.345   2.355   2.406   2.417   2.449   2.455   2.526
  2.536   2.600   2.615   2.692   2.707   2.756   2.976   3.012
  3.107   3.109   3.229   3.246   3.548   3.574   3.771   3.819
  4.090   4.129   4.139   4.154   4.247   4.350   4.486   4.536
 --------------------------------------------------------------
 
          Ground-State Mulliken Net Atomic Charges

     Atom                 Charge (a.u.)    Spin (a.u.)
  --------------------------------------------------------
      1 S                     0.106471      -0.050075
      2 C                     0.035421       0.314095
      3 H                     0.247766      -0.015761
      4 C                    -0.383387      -0.023287
      5 H                     0.171426       0.000845
      6 C                     0.262374       0.120643
      7 H                     0.188370      -0.008063
      8 C                    -0.128890       0.161835
      9 C                    -0.128280       0.161579
     10 C                     0.262598       0.120560
     11 H                     0.188279      -0.008064
     12 C                    -0.382766      -0.023260
     13 H                     0.171473       0.000838
     14 C                     0.035229       0.313906
     15 H                     0.247648      -0.015764
     16 S                     0.106269      -0.050024
  --------------------------------------------------------
  Sum of atomic charges =     1.000000
  Sum of spin   charges =     1.000000

 -----------------------------------------------------------------
                    Cartesian Multipole Moments
 -----------------------------------------------------------------
    Charge (ESU x 10^10)
                 4.8032
    Dipole Moment (Debye)
         X      -3.3128      Y       0.1868      Z     -10.1020
       Tot      10.6330
    Quadrupole Moments (Debye-Ang)
        XX     -30.9468     XY      -3.3912     YY     -66.9354
        XZ      23.3104     YZ       3.3891     ZZ     -31.5994
    Octopole Moments (Debye-Ang^2)
       XXX      90.9791    XXY       3.6000    XYY      41.4498
       YYY     -43.8043    XXZ      19.0405    XYZ       4.1074
       YYZ     116.5257    XZZ     -25.6927    YZZ     -34.0394
       ZZZ     262.1171
    Hexadecapole Moments (Debye-Ang^3)
      XXXX   -1296.4830   XXXY      20.3872   XXYY    -315.7810
      XYYY     103.7236   YYYY    -274.4131   XXXZ    -287.1170
      XXYZ     -18.4580   XYYZ    -176.8589   YYYZ      54.9315
      XXZZ    -274.0252   XYZZ      53.1870   YYZZ    -372.7332
      XZZZ    -337.6725   YZZZ     146.7861   ZZZZ   -1800.0895
 -----------------------------------------------------------------
 Calculating analytic gradient of the SCF energy
 Gradient of SCF Energy
            1           2           3           4           5           6
    1  -0.0027067  -0.0006865  -0.0000325   0.0004269  -0.0001898   0.0017440
    2  -0.0009196  -0.0027136   0.0008694   0.0007240  -0.0002831   0.0088737
    3   0.0023410   0.0010192   0.0005514  -0.0024930  -0.0004801  -0.0014373
            7           8           9          10          11          12
    1   0.0005930   0.0005504   0.0024542  -0.0040512  -0.0007726   0.0008206
    2   0.0006416  -0.0108039   0.0067195  -0.0058566  -0.0003629  -0.0024572
    3   0.0002091   0.0027612  -0.0085673   0.0057681   0.0001844  -0.0000186
           13          14          15          16
    1   0.0005543   0.0010701  -0.0006886   0.0009147
    2  -0.0001790   0.0022384   0.0000444   0.0034650
    3  -0.0002019  -0.0016268   0.0007516   0.0012392
 Max gradient component =       1.080E-02
 RMS gradient           =       3.165E-03
 Gradient time:  CPU 1.93 s  wall 1.93 s
 Geometry Optimization Parameters
   NAtoms,    NIC,     NZ,  NCons,   NDum,   NFix, NCnnct, MaxDiis
       16     111       0       1       0       0       0       0

 Cartesian Hessian Update
 Hessian Updated using BFGS Update


** CONSTRAINED OPTIMIZATION IN DELOCALIZED INTERNAL COORDINATES **
   Searching for a Minimum

   Optimization Cycle:   3

                       Coordinates (Angstroms)
     ATOM                X               Y               Z
      1  S        -0.0270847718    0.2112123230    0.0122733619
      2  C         1.6895675194    0.0931205328   -0.0077690325
      3  H         2.2388162157    0.1257981108    0.9266154426
      4  C         2.2184034627   -0.0400751747   -1.2951439782
      5  H         3.2813261025   -0.0877392808   -1.4985187057
      6  C         1.2264889464   -0.1072238711   -2.2737112325
      7  H         1.4188010156   -0.1846121047   -3.3373383917
      8  C        -0.0786289942   -0.0125776164   -1.7396077070
      9  C        -1.2982757626    0.0858724606   -2.4718902006
     10  C        -1.8085594421   -0.8494898496   -3.4005362274
     11  H        -1.2595027648   -1.7338317464   -3.7019231817
     12  C        -3.0957835846   -0.5331412627   -3.8358409055
     13  H        -3.6647390161   -1.1257859940   -4.5419641734
     14  C        -3.5784896531    0.6457176366   -3.2599300277
     15  H        -4.5273666547    1.1315683711   -3.4588472228
     16  S        -2.4903400781    1.3425709456   -2.1236649279
   Point Group: c1    Number of degrees of freedom:    42


   Energy is  -1104.558506984

              Constraints and their Current Values
                                        Value     Constraint
   Dihedral:        6   8   9  10       60.000       60.000
 Hessian Updated using BFGS Update

 40 Hessian modes will be used to form the next step
  Hessian Eigenvalues:
     0.017904    0.045000    0.045000    0.045000    0.045002    0.045002
     0.045003    0.045008    0.045011    0.045012    0.048560    0.159602
     0.159946    0.159969    0.159992    0.160000    0.160268    0.221282
     0.221675    0.237837    0.246032    0.250004    0.287777    0.294451
     0.296965    0.311376    0.312580    0.354778    0.354994    0.355129
     0.355227    0.358274    0.358791    0.377239    0.404881    0.425941
     0.459144    0.463582    0.497934    0.523117

 Minimum Search - Taking Simple RFO Step
 Searching for Lamda that Minimizes Along All modes
 Value Taken    Lamda =  -0.00211503
 Calculated Step too Large.  Step scaled by  0.956781
 Step Taken.  Stepsize is  0.300000

                             Maximum     Tolerance    Cnvgd?
         Gradient           0.005835      0.000300      NO
         Displacement       0.244981      0.001200      NO
         Energy change     -0.002782      0.000001      NO


 New Cartesian Coordinates Obtained by Inverse Iteration

 Displacement from previous Coordinates is:  0.509282
 ----------------------------------------------------------------
             Standard Nuclear Orientation (Angstroms)
    I     Atom           X                Y                Z
 ----------------------------------------------------------------
    1      S      -0.0244417589     0.2782116166    -0.0025307736
    2      C       1.6858143179     0.1476579046    -0.0101149506
    3      H       2.2362664624     0.2062169929     0.9215854099
    4      C       2.2153215029    -0.0661669102    -1.2864127887
    5      H       3.2794443568    -0.1316887128    -1.4785047650
    6      C       1.2253336753    -0.1713887065    -2.2593600393
    7      H       1.4129157653    -0.2994161495    -3.3191667999
    8      C      -0.0875833657    -0.0437427094    -1.7379990744
    9      C      -1.2794602715     0.1059786538    -2.4912550839
   10      C      -1.7886962749    -0.8084725019    -3.4486039340
   11      H      -1.2171984710    -1.6653204578    -3.7863447322
   12      C      -3.0877652617    -0.5134055788    -3.8529939284
   13      H      -3.6567654743    -1.0905093563    -4.5718694751
   14      C      -3.5984077219     0.6210113605    -3.2150026631
   15      H      -4.5577785237     1.0922227501    -3.3944885135
   16      S      -2.5123664171     1.3001952847    -2.0747349982
 ----------------------------------------------------------------
 Nuclear Repulsion Energy =   632.3434666335 hartrees
 There are       43 alpha and       42 beta electrons
 Applying Cartesian multipole field
    Component          Value
    ---------          -----
     (2,0,0)        1.00000E-11
     (0,2,0)        2.00000E-11
     (0,0,2)       -3.00000E-11
 Nucleus-field energy     =    -0.0000000317 hartrees
 Requested basis set is 6-31++G(d,p)
 There are 76 shells and 234 basis functions
 A cutoff of  1.0D-12 yielded   2535 shell pairs
 There are     24943 function pairs

 Q-Chem warning in module /project/projectdirs/jcesr/qchem/qc44/cnl_qc441/compile/cori/qc_src/libqints/qchem/aobasis.C, line 68:

 Using reconstructed effective core potential

 Smallest overlap matrix eigenvalue = 2.12E-06
 Guess MOs from SCF MO coefficient file
 Reading MOs from coefficient file
 Reading MOs from coefficient file
 An unrestricted hybrid HF-DFT SCF calculation will be
 performed using Pulay DIIS extrapolation
 Exchange:     0.2000 Hartree-Fock + 0.0800 Slater + 0.7200 B88
 Correlation:  0.1900 VWN1RPA + 0.8100 LYP
 Using SG-1 standard quadrature grid
 SCF converges when DIIS error is below 1.0E-08
 Geometry optimization detected.  Setting ReadMinima to 0
 Setting SaveMinima to 0
 ---------------------------------------
  Cycle       Energy         DIIS Error
 ---------------------------------------
    1   -1104.5274132716      2.22E-03
    2   -1104.5580264865      4.23E-04
    3   -1104.5537183714      8.44E-04
    4   -1104.5596533284      1.19E-04
    5   -1104.5597547436      4.41E-05
    6   -1104.5597692656      1.41E-05
    7   -1104.5597711613      5.04E-06
    8   -1104.5597714923      1.96E-06
    9   -1104.5597715894      6.90E-07
   10   -1104.5597716542      3.63E-07
   11   -1104.5597716766      1.72E-07
   12   -1104.5597716806      1.06E-07
   13   -1104.5597716811      2.68E-08
   14   -1104.5597716804      1.36E-08
   15   -1104.5597716807      3.86E-09 Convergence criterion met
 ---------------------------------------
 <S^2> = 0.7659
 SCF time:  CPU 10.35 s  wall 9.83 s
 SCF   energy in the final basis set = -1104.5597716807
 Total energy in the final basis set = -1104.5597716807
 
 --------------------------------------------------------------
 
                    Orbital Energies (a.u.)
 --------------------------------------------------------------
 
 Alpha MOs
 -- Occupied --
-89.098 -89.098 -10.432 -10.431 -10.417 -10.417 -10.392 -10.392
-10.379 -10.379  -8.157  -8.157  -6.121  -6.121  -6.117  -6.117
 -6.114  -6.114  -1.085  -1.060  -0.957  -0.931  -0.922  -0.880
 -0.786  -0.752  -0.731  -0.711  -0.698  -0.649  -0.594  -0.594
 -0.589  -0.580  -0.578  -0.555  -0.549  -0.535  -0.523  -0.460
 -0.439  -0.436  -0.399
 -- Virtual --
 -0.240  -0.199  -0.161  -0.137  -0.134  -0.130  -0.125  -0.106
 -0.097  -0.096  -0.090  -0.082  -0.081  -0.076  -0.069  -0.059
 -0.049  -0.042  -0.038  -0.026  -0.025  -0.021  -0.016  -0.004
 -0.001   0.007   0.007   0.010   0.013   0.016   0.019   0.026
  0.027   0.029   0.035   0.040   0.042   0.046   0.057   0.057
  0.059   0.065   0.070   0.081   0.087   0.091   0.094   0.109
  0.112   0.118   0.119   0.131   0.140   0.145   0.148   0.159
  0.179   0.179   0.183   0.193   0.218   0.220   0.229   0.246
  0.272   0.288   0.315   0.332   0.360   0.363   0.393   0.406
  0.414   0.441   0.453   0.465   0.484   0.488   0.498   0.499
  0.531   0.542   0.556   0.561   0.575   0.582   0.589   0.590
  0.623   0.626   0.630   0.656   0.671   0.721   0.733   0.774
  0.778   0.782   0.785   0.812   0.819   0.823   0.835   0.841
  0.851   0.881   0.886   0.889   0.908   0.927   0.929   0.949
  0.970   1.013   1.033   1.043   1.084   1.104   1.138   1.161
  1.168   1.179   1.191   1.207   1.241   1.297   1.304   1.365
  1.423   1.483   1.512   1.540   1.635   1.680   1.711   1.731
  1.747   1.756   1.778   1.792   1.835   1.839   1.869   1.900
  1.940   1.964   1.989   2.005   2.046   2.071   2.095   2.115
  2.199   2.205   2.243   2.263   2.289   2.299   2.319   2.336
  2.344   2.347   2.403   2.415   2.445   2.457   2.521   2.534
  2.591   2.608   2.692   2.707   2.750   2.975   3.011   3.106
  3.108   3.227   3.241   3.546   3.571   3.767   3.826   4.085
  4.117   4.138   4.153   4.240   4.341   4.482   4.528
 
 Beta MOs
 -- Occupied --
-89.098 -89.098 -10.429 -10.429 -10.413 -10.413 -10.390 -10.390
-10.379 -10.379  -8.157  -8.157  -6.121  -6.121  -6.118  -6.117
 -6.114  -6.114  -1.079  -1.054  -0.950  -0.928  -0.919  -0.869
 -0.781  -0.748  -0.726  -0.708  -0.697  -0.646  -0.591  -0.586
 -0.585  -0.578  -0.574  -0.544  -0.539  -0.534  -0.521  -0.436
 -0.435  -0.430
 -- Virtual --
 -0.333  -0.219  -0.187  -0.153  -0.132  -0.126  -0.125  -0.120
 -0.105  -0.096  -0.095  -0.088  -0.080  -0.080  -0.075  -0.068
 -0.057  -0.047  -0.040  -0.037  -0.026  -0.025  -0.019  -0.015
 -0.003  -0.000   0.007   0.008   0.012   0.015   0.016   0.020
  0.027   0.028   0.030   0.036   0.041   0.043   0.047   0.058
  0.059   0.060   0.066   0.071   0.083   0.088   0.092   0.095
  0.110   0.113   0.120   0.120   0.133   0.142   0.146   0.149
  0.161   0.181   0.181   0.185   0.194   0.220   0.222   0.231
  0.248   0.274   0.290   0.316   0.333   0.361   0.365   0.395
  0.407   0.416   0.442   0.454   0.466   0.491   0.495   0.504
  0.510   0.533   0.545   0.559   0.562   0.580   0.587   0.592
  0.594   0.625   0.628   0.637   0.663   0.676   0.722   0.735
  0.778   0.780   0.786   0.788   0.814   0.821   0.823   0.837
  0.843   0.852   0.883   0.887   0.892   0.910   0.928   0.930
  0.950   0.975   1.017   1.039   1.048   1.087   1.108   1.143
  1.164   1.172   1.185   1.199   1.210   1.248   1.303   1.308
  1.372   1.432   1.492   1.526   1.552   1.639   1.684   1.714
  1.737   1.749   1.758   1.783   1.798   1.839   1.844   1.874
  1.906   1.949   1.973   1.996   2.018   2.056   2.078   2.100
  2.120   2.203   2.208   2.249   2.269   2.291   2.300   2.323
  2.342   2.347   2.352   2.407   2.420   2.447   2.462   2.525
  2.538   2.596   2.612   2.695   2.709   2.752   2.976   3.013
  3.107   3.109   3.229   3.243   3.547   3.572   3.767   3.826
  4.091   4.125   4.141   4.155   4.247   4.348   4.486   4.531
 --------------------------------------------------------------
 
          Ground-State Mulliken Net Atomic Charges

     Atom                 Charge (a.u.)    Spin (a.u.)
  --------------------------------------------------------
      1 S                     0.102102      -0.053708
      2 C                     0.013311       0.320867
      3 H                     0.249992      -0.016429
      4 C                    -0.331295      -0.031339
      5 H                     0.171951       0.001467
      6 C                     0.130561       0.138254
      7 H                     0.186736      -0.009258
      8 C                    -0.023081       0.150360
      9 C                    -0.024000       0.150262
     10 C                     0.131267       0.138083
     11 H                     0.186647      -0.009240
     12 C                    -0.331569      -0.031326
     13 H                     0.171913       0.001459
     14 C                     0.013298       0.320567
     15 H                     0.249963      -0.016418
     16 S                     0.102204      -0.053602
  --------------------------------------------------------
  Sum of atomic charges =     1.000000
  Sum of spin   charges =     1.000000

 -----------------------------------------------------------------
                    Cartesian Multipole Moments
 -----------------------------------------------------------------
    Charge (ESU x 10^10)
                 4.8032
    Dipole Moment (Debye)
         X      -3.3223      Y       0.1985      Z     -10.0835
       Tot      10.6186
    Quadrupole Moments (Debye-Ang)
        XX     -30.6470     XY      -3.4377     YY     -67.2873
        XZ      23.2145     YZ       3.9498     ZZ     -31.6391
    Octopole Moments (Debye-Ang^2)
       XXX      89.0101    XXY       3.2283    XYY      43.1336
       YYY     -44.3966    XXZ      19.4013    XYZ       4.4829
       YYZ     117.6726    XZZ     -24.9221    YZZ     -36.0727
       ZZZ     260.1782
    Hexadecapole Moments (Debye-Ang^3)
      XXXX   -1288.1588   XXXY      19.1205   XXYY    -318.9133
      XYYY     104.6000   YYYY    -267.9280   XXXZ    -281.4604
      XXYZ     -17.8920   XYYZ    -180.8579   YYYZ      45.7359
      XXZZ    -279.0527   XYZZ      54.1082   YYZZ    -373.6957
      XZZZ    -335.6899   YZZZ     147.4793   ZZZZ   -1783.0356
 -----------------------------------------------------------------
 Calculating analytic gradient of the SCF energy
 Gradient of SCF Energy
            1           2           3           4           5           6
    1   0.0012471  -0.0020878   0.0001506  -0.0004423   0.0000373   0.0039641
    2  -0.0000325  -0.0002598  -0.0001211  -0.0001218   0.0000826   0.0096664
    3   0.0002761   0.0021428  -0.0000293  -0.0033093   0.0002605   0.0010007
            7           8           9          10          11          12
    1  -0.0002363  -0.0074277   0.0108282  -0.0073272  -0.0001101   0.0022803
    2   0.0006267  -0.0168761   0.0123621  -0.0052587  -0.0001848  -0.0022756
    3   0.0000398   0.0020242  -0.0085164   0.0053429   0.0006348  -0.0002310
           13          14          15          16
    1  -0.0002071   0.0002729  -0.0000454  -0.0008967
    2   0.0001482   0.0026546  -0.0000398  -0.0003704
    3   0.0000567   0.0012807  -0.0002116  -0.0007616
 Max gradient component =       1.688E-02
 RMS gradient           =       4.450E-03
 Gradient time:  CPU 1.91 s  wall 1.92 s
 Geometry Optimization Parameters
   NAtoms,    NIC,     NZ,  NCons,   NDum,   NFix, NCnnct, MaxDiis
       16     111       0       1       0       0       0       0

 Cartesian Hessian Update
 Hessian Updated using BFGS Update


** CONSTRAINED OPTIMIZATION IN DELOCALIZED INTERNAL COORDINATES **
   Searching for a Minimum

   Optimization Cycle:   4

                       Coordinates (Angstroms)
     ATOM                X               Y               Z
      1  S        -0.0244417589    0.2782116166   -0.0025307736
      2  C         1.6858143179    0.1476579046   -0.0101149506
      3  H         2.2362664624    0.2062169929    0.9215854099
      4  C         2.2153215029   -0.0661669102   -1.2864127887
      5  H         3.2794443568   -0.1316887128   -1.4785047650
      6  C         1.2253336753   -0.1713887065   -2.2593600393
      7  H         1.4129157653   -0.2994161495   -3.3191667999
      8  C        -0.0875833657   -0.0437427094   -1.7379990744
      9  C        -1.2794602715    0.1059786538   -2.4912550839
     10  C        -1.7886962749   -0.8084725019   -3.4486039340
     11  H        -1.2171984710   -1.6653204578   -3.7863447322
     12  C        -3.0877652617   -0.5134055788   -3.8529939284
     13  H        -3.6567654743   -1.0905093563   -4.5718694751
     14  C        -3.5984077219    0.6210113605   -3.2150026631
     15  H        -4.5577785237    1.0922227501   -3.3944885135
     16  S        -2.5123664171    1.3001952847   -2.0747349982
   Point Group: c1    Number of degrees of freedom:    42


   Energy is  -1104.559771681

              Constraints and their Current Values
                                        Value     Constraint
   Dihedral:        6   8   9  10       60.000       60.000
 Hessian Updated using BFGS Update

 41 Hessian modes will be used to form the next step
  Hessian Eigenvalues:
     0.015046    0.045000    0.045000    0.045000    0.045001    0.045002
     0.045002    0.045004    0.045010    0.045012    0.045302    0.047852
     0.159942    0.159950    0.159975    0.159992    0.160000    0.162078
     0.221284    0.222033    0.237836    0.246786    0.250002    0.290302
     0.294466    0.296346    0.312570    0.326740    0.354780    0.355055
     0.355129    0.355292    0.358272    0.358700    0.380085    0.404882
     0.424301    0.459391    0.463582    0.497934    0.509185

 Minimum Search - Taking Simple RFO Step
 Searching for Lamda that Minimizes Along All modes
 Value Taken    Lamda =  -0.00032135
 Step Taken.  Stepsize is  0.124854

                             Maximum     Tolerance    Cnvgd?
         Gradient           0.002500      0.000300      NO
         Displacement       0.111982      0.001200      NO
         Energy change     -0.001265      0.000001      NO


 New Cartesian Coordinates Obtained by Inverse Iteration

 Displacement from previous Coordinates is:  0.237025
 ----------------------------------------------------------------
             Standard Nuclear Orientation (Angstroms)
    I     Atom           X                Y                Z
 ----------------------------------------------------------------
    1      S      -0.0263902966     0.3018747169    -0.0094770813
    2      C       1.6848743532     0.1717671796    -0.0121485703
    3      H       2.2337068574     0.2480458182     0.9191870163
    4      C       2.2146749021    -0.0780031042    -1.2797303106
    5      H       3.2786423537    -0.1520745395    -1.4694985866
    6      C       1.2246291453    -0.1999901233    -2.2524082384
    7      H       1.4141020450    -0.3539072137    -3.3087088268
    8      C      -0.0892401870    -0.0576790624    -1.7371579308
    9      C      -1.2724230113     0.1150500773    -2.5019319972
   10      C      -1.7798488473    -0.7890638978    -3.4700534948
   11      H      -1.2004738919    -1.6322862865    -3.8286637382
   12      C      -3.0863813149    -0.5030871417    -3.8604970638
   13      H      -3.6530761466    -1.0755184524    -4.5848820536
   14      C      -3.6074180024     0.6086296112    -3.1954603386
   15      H      -4.5734660125     1.0715374043    -3.3597104048
   16      S      -2.5172794063     1.2860884940    -2.0566554906
 ----------------------------------------------------------------
 Nuclear Repulsion Energy =   632.6260116364 hartrees
 There are       43 alpha and       42 beta electrons
 Applying Cartesian multipole field
    Component          Value
    ---------          -----
     (2,0,0)        1.00000E-11
     (0,2,0)        2.00000E-11
     (0,0,2)       -3.00000E-11
 Nucleus-field energy     =    -0.0000000316 hartrees
 Requested basis set is 6-31++G(d,p)
 There are 76 shells and 234 basis functions
 A cutoff of  1.0D-12 yielded   2535 shell pairs
 There are     24943 function pairs

 Q-Chem warning in module /project/projectdirs/jcesr/qchem/qc44/cnl_qc441/compile/cori/qc_src/libqints/qchem/aobasis.C, line 68:

 Using reconstructed effective core potential

 Smallest overlap matrix eigenvalue = 2.51E-06
 Guess MOs from SCF MO coefficient file
 Reading MOs from coefficient file
 Reading MOs from coefficient file
 An unrestricted hybrid HF-DFT SCF calculation will be
 performed using Pulay DIIS extrapolation
 Exchange:     0.2000 Hartree-Fock + 0.0800 Slater + 0.7200 B88
 Correlation:  0.1900 VWN1RPA + 0.8100 LYP
 Using SG-1 standard quadrature grid
 SCF converges when DIIS error is below 1.0E-08
 Geometry optimization detected.  Setting ReadMinima to 0
 Setting SaveMinima to 0
 ---------------------------------------
  Cycle       Energy         DIIS Error
 ---------------------------------------
    1   -1104.5471801773      8.61E-04
    2   -1104.5597867374      1.32E-04
    3   -1104.5593829755      2.61E-04
    4   -1104.5599535536      3.94E-05
    5   -1104.5599647230      1.52E-05
    6   -1104.5599664551      6.05E-06
    7   -1104.5599668149      1.72E-06
    8   -1104.5599668632      8.09E-07
    9   -1104.5599668770      3.30E-07
   10   -1104.5599668906      1.63E-07
   11   -1104.5599668941      7.07E-08
   12   -1104.5599668939      4.33E-08
   13   -1104.5599668937      1.14E-08
   14   -1104.5599668936      6.98E-09 Convergence criterion met
 ---------------------------------------
 <S^2> = 0.7663
 SCF time:  CPU 9.50 s  wall 9.04 s
 SCF   energy in the final basis set = -1104.5599668936
 Total energy in the final basis set = -1104.5599668936
 
 --------------------------------------------------------------
 
                    Orbital Energies (a.u.)
 --------------------------------------------------------------
 
 Alpha MOs
 -- Occupied --
-89.098 -89.098 -10.432 -10.432 -10.417 -10.417 -10.393 -10.393
-10.378 -10.378  -8.157  -8.157  -6.121  -6.121  -6.117  -6.117
 -6.114  -6.114  -1.085  -1.060  -0.957  -0.931  -0.921  -0.880
 -0.786  -0.752  -0.730  -0.711  -0.698  -0.650  -0.594  -0.594
 -0.590  -0.581  -0.578  -0.554  -0.549  -0.535  -0.522  -0.461
 -0.438  -0.436  -0.399
 -- Virtual --
 -0.241  -0.198  -0.161  -0.138  -0.133  -0.130  -0.125  -0.106
 -0.098  -0.096  -0.089  -0.082  -0.081  -0.076  -0.070  -0.058
 -0.049  -0.041  -0.039  -0.026  -0.024  -0.021  -0.016  -0.004
 -0.001   0.006   0.008   0.010   0.012   0.016   0.018   0.026
  0.026   0.030   0.036   0.041   0.042   0.045   0.056   0.057
  0.059   0.066   0.071   0.081   0.087   0.090   0.093   0.109
  0.113   0.118   0.119   0.132   0.139   0.146   0.149   0.159
  0.177   0.179   0.183   0.192   0.219   0.220   0.230   0.245
  0.269   0.288   0.316   0.328   0.360   0.363   0.391   0.405
  0.415   0.441   0.452   0.466   0.484   0.487   0.497   0.500
  0.529   0.539   0.556   0.561   0.574   0.580   0.588   0.590
  0.623   0.627   0.630   0.657   0.670   0.721   0.733   0.775
  0.776   0.777   0.784   0.812   0.819   0.824   0.834   0.841
  0.850   0.879   0.889   0.891   0.907   0.927   0.930   0.949
  0.970   1.012   1.033   1.041   1.081   1.101   1.124   1.158
  1.166   1.184   1.190   1.210   1.241   1.297   1.303   1.365
  1.430   1.474   1.512   1.537   1.634   1.681   1.712   1.728
  1.746   1.755   1.777   1.798   1.834   1.836   1.866   1.900
  1.938   1.963   1.986   2.000   2.049   2.070   2.098   2.114
  2.199   2.205   2.242   2.263   2.289   2.299   2.318   2.337
  2.344   2.346   2.403   2.415   2.444   2.460   2.521   2.534
  2.587   2.606   2.692   2.707   2.748   2.975   3.010   3.106
  3.108   3.227   3.240   3.545   3.570   3.765   3.828   4.084
  4.116   4.138   4.153   4.240   4.340   4.482   4.525
 
 Beta MOs
 -- Occupied --
-89.098 -89.098 -10.430 -10.429 -10.413 -10.413 -10.391 -10.391
-10.379 -10.379  -8.157  -8.157  -6.121  -6.121  -6.117  -6.117
 -6.114  -6.114  -1.079  -1.055  -0.950  -0.928  -0.919  -0.870
 -0.781  -0.749  -0.725  -0.708  -0.697  -0.647  -0.591  -0.586
 -0.584  -0.578  -0.574  -0.544  -0.539  -0.534  -0.521  -0.437
 -0.435  -0.431
 -- Virtual --
 -0.333  -0.220  -0.186  -0.154  -0.131  -0.127  -0.125  -0.120
 -0.105  -0.097  -0.095  -0.087  -0.080  -0.080  -0.075  -0.069
 -0.057  -0.047  -0.040  -0.038  -0.026  -0.024  -0.019  -0.015
 -0.003  -0.000   0.007   0.008   0.012   0.014   0.017   0.019
  0.027   0.028   0.031   0.037   0.042   0.043   0.047   0.057
  0.059   0.060   0.068   0.072   0.083   0.088   0.091   0.094
  0.110   0.114   0.119   0.120   0.134   0.140   0.147   0.150
  0.161   0.179   0.181   0.186   0.194   0.220   0.222   0.231
  0.247   0.271   0.290   0.318   0.329   0.361   0.365   0.394
  0.407   0.416   0.441   0.453   0.468   0.490   0.494   0.503
  0.510   0.532   0.542   0.559   0.562   0.578   0.584   0.593
  0.593   0.625   0.632   0.635   0.664   0.675   0.722   0.735
  0.777   0.780   0.781   0.787   0.814   0.821   0.824   0.836
  0.843   0.852   0.881   0.890   0.894   0.909   0.928   0.931
  0.950   0.975   1.016   1.040   1.047   1.085   1.105   1.128
  1.162   1.171   1.189   1.199   1.212   1.247   1.304   1.307
  1.372   1.439   1.482   1.526   1.549   1.638   1.687   1.715
  1.734   1.748   1.758   1.783   1.804   1.838   1.841   1.871
  1.906   1.947   1.972   1.993   2.012   2.060   2.078   2.103
  2.118   2.203   2.208   2.247   2.269   2.291   2.300   2.321
  2.342   2.347   2.352   2.407   2.420   2.446   2.464   2.525
  2.538   2.592   2.610   2.696   2.709   2.750   2.977   3.012
  3.107   3.108   3.228   3.242   3.546   3.571   3.766   3.828
  4.090   4.123   4.141   4.156   4.247   4.347   4.485   4.529
 --------------------------------------------------------------
 
          Ground-State Mulliken Net Atomic Charges

     Atom                 Charge (a.u.)    Spin (a.u.)
  --------------------------------------------------------
      1 S                     0.104072      -0.056060
      2 C                    -0.001453       0.322658
      3 H                     0.250638      -0.016524
      4 C                    -0.304024      -0.035239
      5 H                     0.172142       0.001663
      6 C                     0.067826       0.146825
      7 H                     0.185840      -0.009697
      8 C                     0.024849       0.146513
      9 C                     0.025085       0.146680
     10 C                     0.068128       0.146467
     11 H                     0.185747      -0.009676
     12 C                    -0.304595      -0.035148
     13 H                     0.172085       0.001655
     14 C                    -0.001680       0.322331
     15 H                     0.250624      -0.016512
     16 S                     0.104716      -0.055936
  --------------------------------------------------------
  Sum of atomic charges =     1.000000
  Sum of spin   charges =     1.000000

 -----------------------------------------------------------------
                    Cartesian Multipole Moments
 -----------------------------------------------------------------
    Charge (ESU x 10^10)
                 4.8032
    Dipole Moment (Debye)
         X      -3.3194      Y       0.1932      Z     -10.0900
       Tot      10.6237
    Quadrupole Moments (Debye-Ang)
        XX     -30.5433     XY      -3.4273     YY     -67.4260
        XZ      23.1219     YZ       4.2407     ZZ     -31.6076
    Octopole Moments (Debye-Ang^2)
       XXX      88.1654    XXY       2.9652    XYY      43.8716
       YYY     -44.5986    XXZ      19.7044    XYZ       4.5744
       YYZ     118.1788    XZZ     -24.4252    YZZ     -37.1576
       ZZZ     259.2639
    Hexadecapole Moments (Debye-Ang^3)
      XXXX   -1283.8737   XXXY      19.2479   XXYY    -320.2639
      XYYY     105.1309   YYYY    -265.9223   XXXZ    -280.1611
      XXYZ     -16.8319   XYYZ    -182.6765   YYYZ      42.3776
      XXZZ    -282.1939   XYZZ      55.0729   YYZZ    -374.3768
      XZZZ    -335.7408   YZZZ     149.4394   ZZZZ   -1775.8359
 -----------------------------------------------------------------
 Calculating analytic gradient of the SCF energy
 Gradient of SCF Energy
            1           2           3           4           5           6
    1   0.0012045  -0.0012793   0.0001549  -0.0000403   0.0000371   0.0027836
    2   0.0000563   0.0006103  -0.0003148  -0.0003506   0.0001443   0.0101306
    3  -0.0001170   0.0010825  -0.0000623  -0.0014120   0.0002674   0.0009422
            7           8           9          10          11          12
    1  -0.0002835  -0.0069339   0.0109403  -0.0067272   0.0000606   0.0010395
    2   0.0004249  -0.0194239   0.0141601  -0.0049792  -0.0001582  -0.0008975
    3  -0.0000976   0.0032057  -0.0106403   0.0063763   0.0004998  -0.0004310
           13          14          15          16
    1  -0.0002398  -0.0000379   0.0000630  -0.0007414
    2   0.0001186   0.0011196   0.0000154  -0.0006559
    3   0.0001137   0.0013619  -0.0003670  -0.0007222
 Max gradient component =       1.942E-02
 RMS gradient           =       4.799E-03
 Gradient time:  CPU 1.99 s  wall 1.92 s
 Geometry Optimization Parameters
   NAtoms,    NIC,     NZ,  NCons,   NDum,   NFix, NCnnct, MaxDiis
       16     111       0       1       0       0       0       0

 Cartesian Hessian Update
 Hessian Updated using BFGS Update


** CONSTRAINED OPTIMIZATION IN DELOCALIZED INTERNAL COORDINATES **
   Searching for a Minimum

   Optimization Cycle:   5

                       Coordinates (Angstroms)
     ATOM                X               Y               Z
      1  S        -0.0263902966    0.3018747169   -0.0094770813
      2  C         1.6848743532    0.1717671796   -0.0121485703
      3  H         2.2337068574    0.2480458182    0.9191870163
      4  C         2.2146749021   -0.0780031042   -1.2797303106
      5  H         3.2786423537   -0.1520745395   -1.4694985866
      6  C         1.2246291453   -0.1999901233   -2.2524082384
      7  H         1.4141020450   -0.3539072137   -3.3087088268
      8  C        -0.0892401870   -0.0576790624   -1.7371579308
      9  C        -1.2724230113    0.1150500773   -2.5019319972
     10  C        -1.7798488473   -0.7890638978   -3.4700534948
     11  H        -1.2004738919   -1.6322862865   -3.8286637382
     12  C        -3.0863813149   -0.5030871417   -3.8604970638
     13  H        -3.6530761466   -1.0755184524   -4.5848820536
     14  C        -3.6074180024    0.6086296112   -3.1954603386
     15  H        -4.5734660125    1.0715374043   -3.3597104048
     16  S        -2.5172794063    1.2860884940   -2.0566554906
   Point Group: c1    Number of degrees of freedom:    42


   Energy is  -1104.559966894

              Constraints and their Current Values
                                        Value     Constraint
   Dihedral:        6   8   9  10       60.000       60.000
 Hessian Updated using BFGS Update

 41 Hessian modes will be used to form the next step
  Hessian Eigenvalues:
     0.014414    0.043751    0.045000    0.045000    0.045000    0.045001
     0.045002    0.045002    0.045005    0.045011    0.045027    0.047412
     0.158468    0.159947    0.159965    0.159992    0.160000    0.160067
     0.221283    0.221980    0.237837    0.246117    0.249999    0.287595
     0.294361    0.294520    0.306587    0.312571    0.354772    0.354971
     0.355128    0.355159    0.358271    0.358699    0.379436    0.404882
     0.427014    0.458359    0.463581    0.491780    0.497939

 Minimum Search - Taking Simple RFO Step
 Searching for Lamda that Minimizes Along All modes
 Value Taken    Lamda =  -0.00005099
 Step Taken.  Stepsize is  0.035990

                             Maximum     Tolerance    Cnvgd?
         Gradient           0.001564      0.000300      NO
         Displacement       0.030699      0.001200      NO
         Energy change     -0.000195      0.000001      NO


 New Cartesian Coordinates Obtained by Inverse Iteration

 Displacement from previous Coordinates is:  0.069831
 ----------------------------------------------------------------
             Standard Nuclear Orientation (Angstroms)
    I     Atom           X                Y                Z
 ----------------------------------------------------------------
    1      S      -0.0291195450     0.3060841088    -0.0115273257
    2      C       1.6839993498     0.1771099547    -0.0130355733
    3      H       2.2311962385     0.2615313920     0.9185649779
    4      C       2.2138112486    -0.0807152385    -1.2775412134
    5      H       3.2774169221    -0.1578093582    -1.4682731664
    6      C       1.2237816442    -0.2071007028    -2.2509276044
    7      H       1.4159845594    -0.3707459484    -3.3053033293
    8      C      -0.0891793934    -0.0609776591    -1.7373598086
    9      C      -1.2705833230     0.1175311587    -2.5053835737
   10      C      -1.7768780854    -0.7837645674    -3.4751517273
   11      H      -1.1960459967    -1.6221665562    -3.8426838478
   12      C      -3.0861018939    -0.5002444356    -3.8613737422
   13      H      -3.6507529202    -1.0726297770    -4.5874200709
   14      C      -3.6089461492     0.6055410659    -3.1906111463
   15      H      -4.5778409384     1.0651485427    -3.3471150057
   16      S      -2.5161091774     1.2845915004    -2.0526549531
 ----------------------------------------------------------------
 Nuclear Repulsion Energy =   632.7483698563 hartrees
 There are       43 alpha and       42 beta electrons
 Applying Cartesian multipole field
    Component          Value
    ---------          -----
     (2,0,0)        1.00000E-11
     (0,2,0)        2.00000E-11
     (0,0,2)       -3.00000E-11
 Nucleus-field energy     =    -0.0000000316 hartrees
 Requested basis set is 6-31++G(d,p)
 There are 76 shells and 234 basis functions
 A cutoff of  1.0D-12 yielded   2535 shell pairs
 There are     24943 function pairs

 Q-Chem warning in module /project/projectdirs/jcesr/qchem/qc44/cnl_qc441/compile/cori/qc_src/libqints/qchem/aobasis.C, line 68:

 Using reconstructed effective core potential

 Smallest overlap matrix eigenvalue = 2.61E-06
 Guess MOs from SCF MO coefficient file
 Reading MOs from coefficient file
 Reading MOs from coefficient file
 An unrestricted hybrid HF-DFT SCF calculation will be
 performed using Pulay DIIS extrapolation
 Exchange:     0.2000 Hartree-Fock + 0.0800 Slater + 0.7200 B88
 Correlation:  0.1900 VWN1RPA + 0.8100 LYP
 Using SG-1 standard quadrature grid
 SCF converges when DIIS error is below 1.0E-08
 Geometry optimization detected.  Setting ReadMinima to 0
 Setting SaveMinima to 0
 ---------------------------------------
[...]
    9   -1104.5600042647      8.38E-09 Convergence criterion met
 ---------------------------------------
 <S^2> = 0.7665
 SCF time:  CPU 5.96 s  wall 5.72 s
 SCF   energy in the final basis set = -1104.5600042647
 Total energy in the final basis set = -1104.5600042647
 
 --------------------------------------------------------------
 
                    Orbital Energies (a.u.)
 --------------------------------------------------------------
 
 Alpha MOs
 -- Occupied --
-89.098 -89.098 -10.432 -10.432 -10.417 -10.417 -10.393 -10.393
-10.378 -10.378  -8.157  -8.157  -6.121  -6.121  -6.117  -6.117
 -6.114  -6.113  -1.085  -1.060  -0.957  -0.931  -0.921  -0.881
 -0.786  -0.752  -0.730  -0.711  -0.699  -0.650  -0.594  -0.594
 -0.590  -0.581  -0.578  -0.554  -0.549  -0.535  -0.522  -0.462
 -0.438  -0.436  -0.399
 -- Virtual --
 -0.241  -0.198  -0.161  -0.138  -0.133  -0.130  -0.125  -0.106
 -0.098  -0.096  -0.089  -0.082  -0.081  -0.076  -0.070  -0.059
 -0.049  -0.041  -0.039  -0.026  -0.024  -0.021  -0.016  -0.004
 -0.001   0.006   0.008   0.010   0.012   0.016   0.018   0.026
  0.026   0.030   0.036   0.041   0.042   0.045   0.056   0.057
  0.059   0.066   0.071   0.081   0.087   0.090   0.093   0.109
  0.113   0.118   0.119   0.133   0.138   0.146   0.149   0.159
  0.177   0.178   0.184   0.192   0.218   0.220   0.229   0.245
  0.268   0.289   0.317   0.327   0.360   0.364   0.391   0.405
  0.415   0.441   0.452   0.466   0.484   0.487   0.496   0.500
  0.530   0.538   0.556   0.561   0.574   0.579   0.587   0.591
  0.623   0.627   0.631   0.658   0.670   0.721   0.734   0.774
  0.776   0.777   0.783   0.813   0.819   0.825   0.835   0.840
  0.850   0.878   0.890   0.891   0.907   0.927   0.930   0.949
  0.971   1.013   1.033   1.041   1.080   1.101   1.121   1.158
  1.167   1.187   1.189   1.209   1.239   1.300   1.302   1.363
  1.431   1.473   1.511   1.535   1.633   1.682   1.713   1.727
  1.745   1.755   1.778   1.799   1.835   1.835   1.866   1.901
  1.938   1.962   1.985   1.997   2.050   2.070   2.100   2.114
  2.199   2.205   2.243   2.262   2.289   2.299   2.318   2.336
  2.343   2.347   2.403   2.415   2.443   2.460   2.521   2.534
  2.586   2.606   2.693   2.707   2.748   2.976   3.010   3.106
  3.107   3.227   3.241   3.545   3.570   3.765   3.828   4.084
  4.116   4.139   4.153   4.240   4.341   4.482   4.525
 
 Beta MOs
 -- Occupied --
-89.098 -89.098 -10.430 -10.429 -10.413 -10.413 -10.391 -10.391
-10.379 -10.379  -8.157  -8.157  -6.121  -6.121  -6.117  -6.117
 -6.114  -6.114  -1.079  -1.054  -0.950  -0.928  -0.919  -0.870
 -0.781  -0.749  -0.725  -0.708  -0.697  -0.647  -0.591  -0.586
 -0.584  -0.579  -0.574  -0.544  -0.539  -0.534  -0.521  -0.437
 -0.435  -0.431
 -- Virtual --
 -0.333  -0.220  -0.186  -0.154  -0.131  -0.127  -0.125  -0.120
 -0.105  -0.097  -0.095  -0.087  -0.080  -0.080  -0.075  -0.069
 -0.057  -0.047  -0.040  -0.038  -0.026  -0.024  -0.019  -0.015
 -0.003  -0.000   0.007   0.009   0.012   0.014   0.017   0.019
  0.027   0.027   0.031   0.038   0.042   0.043   0.046   0.057
  0.059   0.060   0.068   0.072   0.083   0.088   0.091   0.094
  0.109   0.114   0.119   0.120   0.135   0.140   0.147   0.150
  0.161   0.178   0.180   0.187   0.194   0.220   0.222   0.231
  0.247   0.271   0.291   0.318   0.329   0.361   0.366   0.393
  0.406   0.416   0.441   0.453   0.468   0.489   0.494   0.502
  0.510   0.532   0.542   0.559   0.562   0.578   0.583   0.593
  0.593   0.625   0.632   0.635   0.664   0.675   0.722   0.736
  0.778   0.778   0.782   0.786   0.815   0.821   0.825   0.837
  0.842   0.851   0.880   0.891   0.894   0.909   0.928   0.931
  0.950   0.975   1.016   1.040   1.047   1.084   1.105   1.125
  1.163   1.171   1.192   1.197   1.211   1.245   1.306   1.307
  1.370   1.440   1.481   1.525   1.548   1.637   1.687   1.716
  1.733   1.748   1.757   1.783   1.805   1.840   1.841   1.871
  1.906   1.947   1.971   1.992   2.009   2.060   2.078   2.105
  2.118   2.203   2.208   2.249   2.269   2.292   2.300   2.321
  2.342   2.346   2.353   2.407   2.420   2.445   2.465   2.525
  2.538   2.591   2.610   2.696   2.709   2.751   2.977   3.011
  3.106   3.108   3.229   3.243   3.546   3.571   3.765   3.828
  4.090   4.123   4.142   4.156   4.247   4.347   4.486   4.529
 --------------------------------------------------------------
 
          Ground-State Mulliken Net Atomic Charges

     Atom                 Charge (a.u.)    Spin (a.u.)
  --------------------------------------------------------
      1 S                     0.103742      -0.057251
      2 C                    -0.003864       0.323311
      3 H                     0.250800      -0.016496
      4 C                    -0.300479      -0.037346
      5 H                     0.171946       0.001720
      6 C                     0.058047       0.150747
      7 H                     0.185554      -0.009783
      8 C                     0.033132       0.145137
      9 C                     0.036767       0.145759
     10 C                     0.056679       0.150278
     11 H                     0.185425      -0.009772
     12 C                    -0.300621      -0.037203
     13 H                     0.171896       0.001721
     14 C                    -0.004777       0.322798
     15 H                     0.250753      -0.016477
     16 S                     0.105000      -0.057143
  --------------------------------------------------------
  Sum of atomic charges =     1.000000
  Sum of spin   charges =     1.000000

 -----------------------------------------------------------------
                    Cartesian Multipole Moments
 -----------------------------------------------------------------
    Charge (ESU x 10^10)
                 4.8032
    Dipole Moment (Debye)
         X      -3.3139      Y       0.1851      Z     -10.0999
       Tot      10.6312
    Quadrupole Moments (Debye-Ang)
        XX     -30.5610     XY      -3.4215     YY     -67.4567
        XZ      23.0352     YZ       4.3690     ZZ     -31.5646
    Octopole Moments (Debye-Ang^2)
       XXX      87.9887    XXY       2.8202    XYY      44.0836
       YYY     -44.6957    XXZ      19.9752    XYZ       4.5784
       YYZ     118.3079    XZZ     -24.0194    YZZ     -37.7036
       ZZZ     258.9382
    Hexadecapole Moments (Debye-Ang^3)
      XXXX   -1281.6307   XXXY      19.6805   XXYY    -320.3787
      XYYY     105.5001   YYYY    -265.9375   XXXZ    -280.8157
      XXYZ     -15.9700   XYYZ    -183.1375   YYYZ      41.9450
      XXZZ    -284.0101   XYZZ      55.7647   YYZZ    -374.5998
      XZZZ    -336.7253   YZZZ     151.5907   ZZZZ   -1773.3759
 -----------------------------------------------------------------
 Calculating analytic gradient of the SCF energy
 Gradient of SCF Energy
            1           2           3           4           5           6
    1  -0.0000593   0.0000553  -0.0000094   0.0000086  -0.0000022   0.0012549
    2   0.0000166   0.0000401  -0.0000093   0.0000053   0.0000128   0.0106944
    3   0.0000177  -0.0000579   0.0000076   0.0000820  -0.0000113   0.0004010
            7           8           9          10          11          12
    1   0.0000178  -0.0054147   0.0098415  -0.0056482  -0.0000176  -0.0000490
    2   0.0000233  -0.0199674   0.0141943  -0.0049595  -0.0000266   0.0000501
    3   0.0000010   0.0038340  -0.0119846   0.0076926   0.0000153  -0.0000018
           13          14          15          16
    1   0.0000116  -0.0000168   0.0000078   0.0000196
    2  -0.0000221  -0.0000900   0.0000065   0.0000316
    3   0.0000018  -0.0000224  -0.0000166   0.0000419
 Max gradient component =       1.997E-02
 RMS gradient           =       4.823E-03
 Gradient time:  CPU 1.94 s  wall 1.91 s
 Geometry Optimization Parameters
   NAtoms,    NIC,     NZ,  NCons,   NDum,   NFix, NCnnct, MaxDiis
       16     111       0       1       0       0       0       0

 Cartesian Hessian Update
 Hessian Updated using BFGS Update


** CONSTRAINED OPTIMIZATION IN DELOCALIZED INTERNAL COORDINATES **
   Searching for a Minimum

   Optimization Cycle:   8

                       Coordinates (Angstroms)
     ATOM                X               Y               Z
      1  S        -0.0300282011    0.3055957972   -0.0114799518
      2  C         1.6840708236    0.1761348954   -0.0129128143
      3  H         2.2304103564    0.2640948890    0.9188554305
      4  C         2.2136175611   -0.0806880904   -1.2772372601
      5  H         3.2769462913   -0.1592258047   -1.4690463330
      6  C         1.2234287318   -0.2067600961   -2.2509285362
      7  H         1.4169801563   -0.3744705298   -3.3044042459
      8  C        -0.0891084944   -0.0602187538   -1.7373549790
      9  C        -1.2706143473    0.1183129223   -2.5056711353
     10  C        -1.7765411825   -0.7832992539   -3.4748447328
     11  H        -1.1951167937   -1.6195712631   -3.8462513500
     12  C        -3.0863160802   -0.5003756572   -3.8607256560
     13  H        -3.6495934169   -1.0734490864   -4.5873276790
     14  C        -3.6089890745    0.6056352253   -3.1911596418
     15  H        -4.5791925556    1.0636661857   -3.3440567498
     16  S        -2.5153212344    1.2860021005   -2.0532514754
   Point Group: c1    Number of degrees of freedom:    42


   Energy is  -1104.560004265

              Constraints and their Current Values
                                        Value     Constraint
   Dihedral:        6   8   9  10       60.000       60.000
 Hessian Updated using BFGS Update

 41 Hessian modes will be used to form the next step
  Hessian Eigenvalues:
     0.015617    0.020091    0.044822    0.045000    0.045000    0.045002
     0.045002    0.045004    0.045004    0.045010    0.045022    0.047089
     0.155947    0.159566    0.159947    0.159990    0.160000    0.160011
     0.221284    0.221824    0.237837    0.244324    0.250000    0.284824
     0.293171    0.294446    0.300713    0.312571    0.354768    0.354951
     0.355129    0.355160    0.358271    0.358712    0.381048    0.404883
     0.426148    0.453035    0.463579    0.489238    0.497938

 Minimum Search - Taking Simple RFO Step
 Searching for Lamda that Minimizes Along All modes
 Value Taken    Lamda =   0.00000000
 Step Taken.  Stepsize is  0.002223

                             Maximum     Tolerance    Cnvgd?
         Gradient           0.000095      0.000300     YES
         Displacement       0.001853      0.001200      NO
         Energy change     -0.000001      0.000001     YES

 Final energy is   -1104.56000426469     


 ******************************
 **  OPTIMIZATION CONVERGED  **
 ******************************

                       Coordinates (Angstroms)
     ATOM                X               Y               Z
      1  S        -0.0300282011    0.3055957972   -0.0114799518
      2  C         1.6840708236    0.1761348954   -0.0129128143
      3  H         2.2304103564    0.2640948890    0.9188554305
      4  C         2.2136175611   -0.0806880904   -1.2772372601
      5  H         3.2769462913   -0.1592258047   -1.4690463330
      6  C         1.2234287318   -0.2067600961   -2.2509285362
      7  H         1.4169801563   -0.3744705298   -3.3044042459
      8  C        -0.0891084944   -0.0602187538   -1.7373549790
      9  C        -1.2706143473    0.1183129223   -2.5056711353
     10  C        -1.7765411825   -0.7832992539   -3.4748447328
     11  H        -1.1951167937   -1.6195712631   -3.8462513500
     12  C        -3.0863160802   -0.5003756572   -3.8607256560
     13  H        -3.6495934169   -1.0734490864   -4.5873276790
     14  C        -3.6089890745    0.6056352253   -3.1911596418
     15  H        -4.5791925556    1.0636661857   -3.3440567498
     16  S        -2.5153212344    1.2860021005   -2.0532514754

Z-matrix Print:
$molecule
1 2
S 
C  1 1.718982
H  2 1.083705 1 119.727738
C  2 1.394595 1 113.157509 3 178.162173 0
H  4 1.083341 2 123.131657 1 177.856267 0
C  4 1.394433 2 112.337333 1 -1.470379 0
H  6 1.084159 4 124.452463 2 177.884908 0
C  6 1.417034 4 113.285514 2 -0.608913 0
C  8 1.420612 6 125.968378 4 167.111076 0
C  9 1.417097 8 125.934020 6 60.000000 0
H  10 1.084135 9 122.249449 8 -11.580634 0
C  10 1.394439 9 113.297749 8 166.875800 0
H  12 1.083349 10 124.516700 9 -179.860374 0
C  12 1.394549 10 112.339253 9 -0.578961 0
H  14 1.083727 12 127.084661 10 176.494450 0
S  14 1.718675 12 113.162989 10 -1.457606 0
$end

 
 --------------------------------------------------------------
 
                    Orbital Energies (a.u.)
 --------------------------------------------------------------
 
 Alpha MOs
 -- Occupied --
-89.098 -89.098 -10.432 -10.432 -10.417 -10.417 -10.393 -10.393
-10.378 -10.378  -8.157  -8.157  -6.121  -6.121  -6.117  -6.117
 -6.114  -6.113  -1.085  -1.060  -0.957  -0.931  -0.921  -0.881
 -0.786  -0.752  -0.730  -0.711  -0.699  -0.650  -0.594  -0.594
 -0.590  -0.581  -0.578  -0.554  -0.549  -0.535  -0.522  -0.462
 -0.438  -0.436  -0.399
 -- Virtual --
 -0.241  -0.198  -0.161  -0.138  -0.133  -0.130  -0.125  -0.106
 -0.098  -0.096  -0.089  -0.082  -0.081  -0.076  -0.070  -0.059
 -0.049  -0.041  -0.039  -0.026  -0.024  -0.021  -0.016  -0.004
 -0.001   0.006   0.008   0.010   0.012   0.016   0.018   0.026
  0.026   0.030   0.036   0.041   0.042   0.045   0.056   0.057
  0.059   0.066   0.071   0.081   0.087   0.090   0.093   0.109
  0.113   0.118   0.119   0.133   0.138   0.146   0.149   0.159
  0.177   0.178   0.184   0.192   0.218   0.220   0.229   0.245
  0.268   0.289   0.317   0.327   0.360   0.364   0.391   0.405
  0.415   0.441   0.452   0.466   0.484   0.487   0.496   0.500
  0.530   0.538   0.556   0.561   0.574   0.579   0.587   0.591
  0.623   0.627   0.631   0.658   0.670   0.721   0.734   0.774
  0.776   0.777   0.783   0.813   0.819   0.825   0.835   0.840
  0.850   0.878   0.890   0.891   0.907   0.927   0.930   0.949
  0.971   1.013   1.033   1.041   1.080   1.101   1.121   1.158
  1.167   1.187   1.189   1.209   1.239   1.300   1.302   1.363
  1.431   1.473   1.511   1.535   1.633   1.682   1.713   1.727
  1.745   1.755   1.778   1.799   1.835   1.835   1.866   1.901
  1.938   1.962   1.985   1.997   2.050   2.070   2.100   2.114
  2.199   2.205   2.243   2.262   2.289   2.299   2.318   2.336
  2.343   2.347   2.403   2.415   2.443   2.460   2.521   2.534
  2.586   2.606   2.693   2.707   2.748   2.976   3.010   3.106
  3.107   3.227   3.241   3.545   3.570   3.765   3.828   4.084
  4.116   4.139   4.153   4.240   4.341   4.482   4.525
 
 Beta MOs
 -- Occupied --
-89.098 -89.098 -10.430 -10.429 -10.413 -10.413 -10.391 -10.391
-10.379 -10.379  -8.157  -8.157  -6.121  -6.121  -6.117  -6.117
 -6.114  -6.114  -1.079  -1.054  -0.950  -0.928  -0.919  -0.870
 -0.781  -0.749  -0.725  -0.708  -0.697  -0.647  -0.591  -0.586
 -0.584  -0.579  -0.574  -0.544  -0.539  -0.534  -0.521  -0.437
 -0.435  -0.431
 -- Virtual --
 -0.333  -0.220  -0.186  -0.154  -0.131  -0.127  -0.125  -0.120
 -0.105  -0.097  -0.095  -0.087  -0.080  -0.080  -0.075  -0.069
 -0.057  -0.047  -0.040  -0.038  -0.026  -0.024  -0.019  -0.015
 -0.003  -0.000   0.007   0.009   0.012   0.014   0.017   0.019
  0.027   0.027   0.031   0.038   0.042   0.043   0.046   0.057
  0.059   0.060   0.068   0.072   0.083   0.088   0.091   0.094
  0.109   0.114   0.119   0.120   0.135   0.140   0.147   0.150
  0.161   0.178   0.180   0.187   0.194   0.220   0.222   0.231
  0.247   0.271   0.291   0.318   0.329   0.361   0.366   0.393
  0.406   0.416   0.441   0.453   0.468   0.489   0.494   0.502
  0.510   0.532   0.542   0.559   0.562   0.578   0.583   0.593
  0.593   0.625   0.632   0.635   0.664   0.675   0.722   0.736
  0.778   0.778   0.782   0.786   0.815   0.821   0.825   0.837
  0.842   0.851   0.880   0.891   0.894   0.909   0.928   0.931
  0.950   0.975   1.016   1.040   1.047   1.084   1.105   1.125
  1.163   1.171   1.192   1.197   1.211   1.245   1.306   1.307
  1.370   1.440   1.481   1.525   1.548   1.637   1.687   1.716
  1.733   1.748   1.757   1.783   1.805   1.840   1.841   1.871
  1.906   1.947   1.971   1.992   2.009   2.060   2.078   2.105
  2.118   2.203   2.208   2.249   2.269   2.292   2.300   2.321
  2.342   2.346   2.353   2.407   2.420   2.445   2.465   2.525
  2.538   2.591   2.610   2.696   2.709   2.751   2.977   3.011
  3.106   3.108   3.229   3.243   3.546   3.571   3.765   3.828
  4.090   4.123   4.142   4.156   4.247   4.347   4.486   4.529
 --------------------------------------------------------------
 
          Ground-State Mulliken Net Atomic Charges

     Atom                 Charge (a.u.)    Spin (a.u.)
  --------------------------------------------------------
      1 S                     0.103742      -0.057251
      2 C                    -0.003864       0.323311
      3 H                     0.250800      -0.016496
      4 C                    -0.300479      -0.037346
      5 H                     0.171946       0.001720
      6 C                     0.058047       0.150747
      7 H                     0.185554      -0.009783
      8 C                     0.033132       0.145137
      9 C                     0.036767       0.145759
     10 C                     0.056679       0.150278
     11 H                     0.185425      -0.009772
     12 C                    -0.300621      -0.037203
     13 H                     0.171896       0.001721
     14 C                    -0.004777       0.322798
     15 H                     0.250753      -0.016477
     16 S                     0.105000      -0.057143
  --------------------------------------------------------
  Sum of atomic charges =     1.000000
  Sum of spin   charges =     1.000000

 -----------------------------------------------------------------
                    Cartesian Multipole Moments
 -----------------------------------------------------------------
    Charge (ESU x 10^10)
                 4.8032
    Dipole Moment (Debye)
         X      -3.3139      Y       0.1851      Z     -10.0999
       Tot      10.6312
    Quadrupole Moments (Debye-Ang)
        XX     -30.5610     XY      -3.4215     YY     -67.4567
        XZ      23.0352     YZ       4.3690     ZZ     -31.5646
    Octopole Moments (Debye-Ang^2)
       XXX      87.9887    XXY       2.8202    XYY      44.0836
       YYY     -44.6957    XXZ      19.9752    XYZ       4.5784
       YYZ     118.3079    XZZ     -24.0194    YZZ     -37.7036
       ZZZ     258.9382
    Hexadecapole Moments (Debye-Ang^3)
      XXXX   -1281.6307   XXXY      19.6805   XXYY    -320.3787
      XYYY     105.5001   YYYY    -265.9375   XXXZ    -280.8157
      XXYZ     -15.9700   XYYZ    -183.1375   YYYZ      41.9450
      XXZZ    -284.0101   XYZZ      55.7647   YYZZ    -374.5998
      XZZZ    -336.7253   YZZZ     151.5907   ZZZZ   -1773.3759
 -----------------------------------------------------------------
Archival summary:
1\1\nid00813\OPT\ProcedureUnspecified\BasisUnspecified\286(1+,2)\bwood\WedMay3102:27:242017WedMay3102:27:242017\0\\#,OPT,ProcedureUnspecified,BasisUnspecified,\\1,2\S\C,1,1.71898\H,2,1.0837,1,119.728\C,2,1.39459,1,113.158,3,178.162,0\H,4,1.08334,2,123.132,1,177.856,0\C,4,1.39443,2,112.337,1,-1.47038,0\H,6,1.08416,4,124.452,2,177.885,0\C,6,1.41703,4,113.286,2,-0.608913,0\C,8,1.42061,6,125.968,4,167.111,0\C,9,1.4171,8,125.934,6,60,0\H,10,1.08413,9,122.249,8,-11.5806,0\C,10,1.39444,9,113.298,8,166.876,0\H,12,1.08335,10,124.517,9,-179.86,0\C,12,1.39455,10,112.339,9,-0.578961,0\H,14,1.08373,12,127.085,10,176.494,0\S,14,1.71867,12,113.163,10,-1.45761,0\\\@

 Total job time:  93.62s(wall), 93.73s(cpu) 
 Wed May 31 02:27:24 2017

        *************************************************************
        *                                                           *
        *  Thank you very much for using Q-Chem.  Have a nice day.  *
        *                                                           *
        *************************************************************


0 sent ACK to 0 
now end server 0 ... 
