srun -N 1 --ntasks-per-node 16 --cpus-per-task 4 --cpu_bind=cores --nodelist nid00811 /global/project/projectdirs/jcesr/qchem/qc44/cnl_qc441/dist/exe/qcprog.cori.haswell.exe .pt_n2_cation_180.0.in.26730.qcin.1 /global/cscratch1/sd/bwood/qchem/nx/qchem26730/
Process 1 of 16 is on nid00811 - thread support 0
Process 2 of 16 is on nid00811 - thread support 0
Process 3 of 16 is on nid00811 - thread support 0
Process 4 of 16 is on nid00811 - thread support 0
Process 5 of 16 is on nid00811 - thread support 0
Process 6 of 16 is on nid00811 - thread support 0
Process 0 of 16 is on nid00811 - thread support 0
initial socket setup ...start
Process 15 of 16 is on nid00811 - thread support 0
initial socket setup ...done 
now start server 0 ... 
nid00811 10.128.3
Q-Chem Developer Version! Running on 10.128.3.*
                  Welcome to Q-Chem
     A Quantum Leap Into The Future Of Chemistry


 Q-Chem 4.4, Q-Chem, Inc., Pleasanton, CA (2016)

 Y. Shao,  Z. Gan,  E. Epifanovsky,  A. T. B. Gilbert,  M. Wormit,  
 J. Kussmann,  A. W. Lange,  A. Behn,  J. Deng,  X. Feng,  D. Ghosh,  
 M. Goldey,  P. R. Horn,  L. D. Jacobson,  I. Kaliman,  F. Rob,  
 R. Z. Khaliullin,  T. Kus,  A. Landau,  J. Liu,  E. I. Proynov,  Y. M. Rhee,  
 R. M. Richard,  M. A. Rohrdanz,  R. P. Steele,  E. J. Sundstrom,  
 H. L. Woodcock III,  P. M. Zimmerman,  D. Zuev,  B. Albrecht,  E. Alguire,  
 B. Austin,  S. A. Baeppler,  G. J. O. Beran,  Y. A. Bernard,  
 E. J. Berquist,  K. Brandhorst,  K. B. Bravaya,  S. T. Brown,  D. Casanova,  
 C.-M. Chang,  Y. Chen,  S. H. Chien,  K. D. Closser,  M. P. Coons,  
 D. L. Crittenden,  S. Dasgupta,  M. Diedenhofen,  R. A. DiStasio Jr.,  
 H. Do,  A. D. Dutoi,  R. G. Edgar,  P.-T. Fang,  S. Fatehi,  Q. Feng,  
 L. Fusti-Molnar,  A. Ghysels,  A. Golubeva-Zadorozhnaya,  J. Gomes,  
 A. Gunina,  M. W. D. Hanson-Heine,  P. H. P. Harbach,  A. W. Hauser,  
 J. E. Herr,  E. G. Hohenstein,  Z. C. Holden,  K. Hui,  T.-C. Jagau,  H. Ji,  
 B. Kaduk,  K. Khistyaev,  Jaehoon Kim,  Jihan Kim,  R. A. King,  
 P. Klunzinger,  K. Koh,  D. Kosenkov,  T. Kowalczyk,  C. M. Krauter,  
 A. Kunitsa,  K. U. Lao,  A. Laurent,  K. V. Lawler,  J. Lee,  D. Lefrancois,  
 S. Lehtola,  S. V. Levchenko,  C. Y. Lin,  Y.-S. Lin,  F. Liu,  E. Livshits,  
 R. C. Lochan,  A. Luenser,  P. Manohar,  S. F. Manzer,  S.-P. Mao,  Y. Mao,  
 N. Mardirossian,  A. V. Marenich,  L. A. Martinez-Martinez,  S. A. Maurer,  
 N. J. Mayhall,  J.-M. Mewes,  A. F. Morrison,  K. Nanda,  T. S. Nguyen-Beck,  
 C. M. Oana,  R. Olivares-Amaya,  D. P. O'Neill,  J. A. Parkhill,  
 T. M. Perrine,  R. Peverati,  P. A. Pieniazek,  F. Plasser,  A. Prociuk,  
 D. R. Rehn,  E. Rosta,  N. J. Russ,  N. Sergueev,  S. M. Sharada,  
 S. Sharma,  D. W. Small,  A. Sodt,  T. Stauch,  T. Stein,  D. Stuck,  
 Y.-C. Su,  A. J. W. Thom,  T. Tsuchimochi,  L. Vogt,  O. Vydrov,  T. Wang,  
 M. A. Watson,  J. Wenzel,  A. White,  C. F. Williams,  V. Vanovschi,  
 K. Yao,  S. Yeganeh,  S. R. Yost,  Z.-Q. You,  I. Y. Zhang,  X. Zhang,  
 Y. Zhao,  B. R. Brooks,  G. K. L. Chan,  D. M. Chipman,  C. J. Cramer,  
 W. A. Goddard III,  M. S. Gordon,  W. J. Hehre,  A. Klamt,  
 H. F. Schaefer III,  M. W. Schmidt,  C. D. Sherrill,  D. G. Truhlar,  
 A. Warshel,  X. Xu,  A. Aspuru-Guzik,  R. Baer,  A. T. Bell,  N. A. Besley,  
 J.-D. Chai,  A. Dreuw,  B. D. Dunietz,  T. R. Furlani,  S. R. Gwaltney,  
 C.-P. Hsu,  Y. Jung,  J. Kong,  D. S. Lambrecht,  W. Liang,  C. Ochsenfeld,  
 V. A. Rassolov,  L. V. Slipchenko,  J. E. Subotnik,  T. Van Voorhis,  
 J. M. Herbert,  A. I. Krylov,  P. M. W. Gill,  M. Head-Gordon

 Contributors to earlier versions of Q-Chem not listed above: 
 R. D. Adamson,  J. Baker,  E. F. C. Byrd,  A. K. Chakraborty,  C.-L. Cheng,  
 H. Dachsel,  R. J. Doerksen,  G. Hawkins,  A. Heyden,  S. Hirata,  
 G. Kedziora,  F. J. Keil,  C. Kelley,  P. P. Korambath,  W. Kurlancheek,  
 A. M. Lee,  M. S. Lee,  D. Liotard,  I. Lotan,  P. E. Maslen,  N. Nair,  
 D. Neuhauser,  R. Olson,  B. Peters,  J. Ritchie,  N. E. Schultz,  
 N. Shenvi,  A. C. Simmonett,  K. S. Thanthiriwatte,  Q. Wu,  W. Zhang

 Please cite Q-Chem as follows:
 Y. Shao et al., Mol. Phys. 113, 184-215 (2015)
 DOI: 10.1080/00268976.2014.952696

 Q-Chem 4.4.2 for Intel X86 EM64T Linux

 Parts of Q-Chem use Armadillo 5.200.1 (Boston Tea Smuggler).
 http://arma.sourceforge.net/

 Q-Chem begins on Wed May 31 02:25:50 2017  

Host: nid00776
0

     Scratch files written to /global/cscratch1/sd/bwood/qchem/nx/qchem26730.0//
 Parallel job on  16  processors

Checking the input file for inconsistencies... 	...done.

--------------------------------------------------------------
User input:
--------------------------------------------------------------
$molecule
 1  2
 S           0.00238887        0.06077275        0.00183269
 C           1.73707619        0.03315849        0.00323229
 H           2.27612737        0.05289032        0.94042557
 C           2.24169204       -0.01546201       -1.26965798
 H           3.30285780       -0.04005365       -1.48972496
 C           1.22479222       -0.01612968       -2.26811464
 H           1.42674790       -0.02650987       -3.33334501
 C          -0.05393771        0.02880388       -1.75170966
 C          -1.32450815        0.04889988       -2.45636342
 C          -2.60320004        0.09383811       -1.93967586
 H          -2.80487143        0.13749987       -0.87513823
 C          -3.61979715        0.11083806       -2.93823785
 H          -4.68043232        0.15360843       -2.71842342
 C          -3.11491669        0.08049702       -4.21154430
 H          -3.65353162        0.09245793       -5.14921810
 S          -1.38144205        0.01267868       -4.21026717
$end


$rem
         jobtype = opt
        exchange = b3lyp
           basis = 6-31++g**
  max_scf_cycles = 150
      mem_static = 775
       mem_total = 7750
      sym_ignore = true
        symmetry = false
          thresh = 12
$end


$opt
CONSTRAINT
tors 6 8 9 10 180.0
ENDCONSTRAINT
$end

--------------------------------------------------------------
 ----------------------------------------------------------------
             Standard Nuclear Orientation (Angstroms)
    I     Atom           X                Y                Z
 ----------------------------------------------------------------
    1      S       0.0023888700     0.0607727500     0.0018326900
    2      C       1.7370761900     0.0331584900     0.0032322900
    3      H       2.2761273700     0.0528903200     0.9404255700
    4      C       2.2416920400    -0.0154620100    -1.2696579800
    5      H       3.3028578000    -0.0400536500    -1.4897249600
    6      C       1.2247922200    -0.0161296800    -2.2681146400
    7      H       1.4267479000    -0.0265098700    -3.3333450100
    8      C      -0.0539377100     0.0288038800    -1.7517096600
    9      C      -1.3245081500     0.0488998800    -2.4563634200
   10      C      -2.6032000400     0.0938381100    -1.9396758600
   11      H      -2.8048714300     0.1374998700    -0.8751382300
   12      C      -3.6197971500     0.1108380600    -2.9382378500
   13      H      -4.6804323200     0.1536084300    -2.7184234200
   14      C      -3.1149166900     0.0804970200    -4.2115443000
   15      H      -3.6535316200     0.0924579300    -5.1492181000
   16      S      -1.3814420500     0.0126786800    -4.2102671700
 ----------------------------------------------------------------
 Nuclear Repulsion Energy =   629.2573748758 hartrees
 There are       43 alpha and       42 beta electrons
 Requested basis set is 6-31++G(d,p)
 There are 76 shells and 234 basis functions

 Total QAlloc Memory Limit   7750 MB
 Mega-Array Size       758 MB
 MEM_STATIC part       775 MB
 A cutoff of  1.0D-12 yielded   2531 shell pairs
 There are     24917 function pairs

 Q-Chem warning in module /project/projectdirs/jcesr/qchem/qc44/cnl_qc441/compile/cori/qc_src/libqints/qchem/aobasis.C, line 68:

 Using reconstructed effective core potential

 
 -------------------------------------------------------
 OpenMP Integral Computing Module                       
 Release: version 1.0, May 2013, Q-Chem Inc. Pittsburgh 
 -------------------------------------------------------
 Integral Job Info:
 Integral job number is                      11
 Integral operator is                         1
 short-range coefficients                     0
 long-range coefficients              100000000
 Omega coefficients                           0
 if combine SR and LR in K                    0
 Integral screening is                        0
 Integral computing path is                   2
 max size of driver memory is            800000
 size of driver memory is                593474
 size of scratch memory is             15166112
 max col of scratch BK array               1296
 max len of scratch array in speh3          155
 max len of scratch index in speh4           18
 max int batch size is                      520
 min int batch size is                       52
 fixed nKL is                                52
 max L of basis functions is                  2
 order of int derivative is                   0
 number of shells is                         76
 number of basis is                         234
 number of cartesian basis is               234
 number of contracted shell pairs          2531
 number of primitive shell pairs           8264
 maxK2 (contraction) of shell pair           36
 max number of K2 of shell pair               1
 max number of CS2 of shell pair            266
 max number of PS2 of shell pair           1524
 mem total for path MDJ                   52408
 -------------------------------------------------------
 Smallest overlap matrix eigenvalue = 8.12E-07
 Linear dependence detected in AO basis
 Number of orthogonalized atomic orbitals = 233
 Maximum deviation from orthogonality = 4.945E-11

 Scale SEOQF with 1.000000e-01/1.000000e-01/1.000000e-02

 Standard Electronic Orientation quadrupole field applied
 Nucleus-field energy     =     0.0000000055 hartrees
 Guess from superposition of atomic densities
 Warning:  Energy on first SCF cycle will be non-variational
 An unrestricted hybrid HF-DFT SCF calculation will be
 performed using Pulay DIIS extrapolation
 Exchange:     0.2000 Hartree-Fock + 0.0800 Slater + 0.7200 B88
 Correlation:  0.1900 VWN1RPA + 0.8100 LYP
 Using SG-1 standard quadrature grid
 SCF converges when DIIS error is below 1.0E-08
 Inaccurate integrated density:
   Number of electrons =    85
   Numerical integral  =    86.000274445886
   Relative error      =     1.1767934657 %
 ---------------------------------------
  Cycle       Energy         DIIS Error
 ---------------------------------------
    1   -1107.1777398353      4.42E-02
    2   -1104.4545698186      3.73E-03
    3   -1104.2877401005      5.81E-03
    4   -1104.5596472955      8.28E-04
    5   -1104.5623909140      5.89E-04
    6   -1104.5652653629      1.50E-04
    7   -1104.5655026904      5.41E-05
    8   -1104.5655602593      1.62E-05
    9   -1104.5655971072      8.96E-06
   10   -1104.5656125335      4.21E-06
   11   -1104.5656148835      3.22E-06
   12   -1104.5656153320      1.02E-06
   13   -1104.5656154238      5.16E-07
   14   -1104.5656154347      1.76E-07
   15   -1104.5656154375      5.70E-08
   16   -1104.5656154379      3.79E-08
   17   -1104.5656154381      8.00E-09 Convergence criterion met
 ---------------------------------------
 <S^2> = 0.7642
 SCF time:  CPU 11.25 s  wall 10.83 s
 SCF   energy in the final basis set = -1104.5656154381
 Total energy in the final basis set = -1104.5656154381
 
 --------------------------------------------------------------
 
                    Orbital Energies (a.u.)
 --------------------------------------------------------------
 
 Alpha MOs
 -- Occupied --
-89.094 -89.094 -10.435 -10.434 -10.418 -10.418 -10.394 -10.394
-10.382 -10.382  -8.154  -8.154  -6.118  -6.118  -6.114  -6.114
 -6.110  -6.110  -1.088  -1.064  -0.960  -0.930  -0.915  -0.894
 -0.787  -0.760  -0.727  -0.712  -0.702  -0.654  -0.598  -0.595
 -0.595  -0.583  -0.582  -0.557  -0.554  -0.529  -0.515  -0.475
 -0.439  -0.431  -0.404
 -- Virtual --
 -0.242  -0.177  -0.155  -0.152  -0.131  -0.125  -0.117  -0.108
 -0.101  -0.100  -0.093  -0.092  -0.078  -0.075  -0.067  -0.053
 -0.051  -0.041  -0.037  -0.030  -0.021  -0.017  -0.010  -0.009
 -0.008   0.004   0.010   0.014   0.016   0.023   0.024   0.024
  0.030   0.034   0.036   0.039   0.042   0.045   0.058   0.060
  0.063   0.077   0.078   0.079   0.084   0.101   0.101   0.109
  0.114   0.118   0.125   0.139   0.148   0.157   0.168   0.173
  0.183   0.192   0.212   0.220   0.226   0.238   0.243   0.246
  0.299   0.324   0.354   0.359   0.383   0.394   0.417   0.440
  0.447   0.463   0.473   0.473   0.484   0.486   0.507   0.534
  0.548   0.554   0.559   0.564   0.569   0.576   0.616   0.624
  0.640   0.649   0.651   0.675   0.700   0.757   0.772   0.778
  0.783   0.788   0.800   0.811   0.821   0.837   0.841   0.851
  0.864   0.876   0.916   0.941   0.941   0.956   0.983   0.999
  1.008   1.025   1.054   1.082   1.092   1.149   1.157   1.163
  1.172   1.183   1.184   1.297   1.305   1.312   1.371   1.441
  1.480   1.504   1.537   1.618   1.680   1.704   1.718   1.740
  1.742   1.759   1.769   1.832   1.880   1.890   1.891   1.942
  1.991   1.996   2.000   2.035   2.062   2.070   2.159   2.192
  2.197   2.245   2.268   2.273   2.302   2.321   2.332   2.356
  2.370   2.378   2.416   2.436   2.500   2.517   2.541   2.579
  2.689   2.693   2.758   2.759   2.971   3.032   3.105   3.115
  3.228   3.256   3.549   3.570   3.801   3.812   4.044   4.110
  4.132   4.139   4.223   4.349   4.480   4.533
 
 Beta MOs
 -- Occupied --
-89.094 -89.094 -10.433 -10.432 -10.414 -10.414 -10.392 -10.392
-10.382 -10.382  -8.154  -8.154  -6.118  -6.118  -6.114  -6.114
 -6.111  -6.111  -1.082  -1.058  -0.953  -0.927  -0.913  -0.884
 -0.782  -0.756  -0.723  -0.709  -0.701  -0.651  -0.595  -0.594
 -0.582  -0.580  -0.579  -0.552  -0.540  -0.528  -0.514  -0.446
 -0.435  -0.427
 -- Virtual --
 -0.339  -0.223  -0.161  -0.153  -0.150  -0.124  -0.117  -0.115
 -0.100  -0.099  -0.095  -0.092  -0.091  -0.077  -0.074  -0.066
 -0.053  -0.050  -0.040  -0.036  -0.029  -0.017  -0.017  -0.009
 -0.009  -0.008   0.005   0.011   0.015   0.017   0.024   0.024
  0.025   0.032   0.034   0.037   0.042   0.043   0.046   0.058
  0.062   0.065   0.079   0.080   0.081   0.085   0.101   0.102
  0.110   0.115   0.120   0.125   0.139   0.149   0.158   0.169
  0.175   0.185   0.193   0.213   0.221   0.226   0.239   0.246
  0.250   0.300   0.325   0.354   0.359   0.385   0.396   0.418
  0.442   0.448   0.464   0.483   0.484   0.489   0.493   0.507
  0.536   0.553   0.554   0.561   0.567   0.578   0.581   0.618
  0.626   0.645   0.650   0.658   0.681   0.702   0.758   0.777
  0.779   0.788   0.790   0.802   0.812   0.823   0.838   0.844
  0.852   0.866   0.878   0.918   0.942   0.943   0.958   0.987
  1.003   1.012   1.029   1.056   1.092   1.095   1.152   1.162
  1.169   1.180   1.185   1.195   1.306   1.307   1.318   1.375
  1.444   1.493   1.518   1.548   1.621   1.688   1.705   1.721
  1.743   1.749   1.761   1.774   1.837   1.882   1.895   1.898
  1.948   2.004   2.006   2.007   2.038   2.069   2.081   2.165
  2.196   2.200   2.246   2.276   2.281   2.304   2.325   2.339
  2.359   2.373   2.385   2.420   2.439   2.502   2.522   2.546
  2.582   2.692   2.698   2.760   2.761   2.972   3.033   3.105
  3.115   3.230   3.258   3.551   3.571   3.801   3.812   4.050
  4.117   4.135   4.142   4.230   4.355   4.484   4.537
 --------------------------------------------------------------
 
          Ground-State Mulliken Net Atomic Charges

     Atom                 Charge (a.u.)    Spin (a.u.)
  --------------------------------------------------------
      1 S                    -0.078408      -0.050046
      2 C                     0.159912       0.310484
      3 H                     0.261945      -0.014841
      4 C                    -0.407059      -0.023591
      5 H                     0.178120      -0.000106
      6 C                     0.567091       0.141500
      7 H                     0.156213      -0.009943
      8 C                    -0.337512       0.146474
      9 C                    -0.338157       0.146636
     10 C                     0.566653       0.141372
     11 H                     0.156307      -0.009931
     12 C                    -0.407049      -0.023491
     13 H                     0.178103      -0.000112
     14 C                     0.159773       0.310378
     15 H                     0.261937      -0.014842
     16 S                    -0.077869      -0.049940
  --------------------------------------------------------
  Sum of atomic charges =     1.000000
  Sum of spin   charges =     1.000000

 -----------------------------------------------------------------
                    Cartesian Multipole Moments
 -----------------------------------------------------------------
    Charge (ESU x 10^10)
                 4.8032
    Dipole Moment (Debye)
         X      -3.3100      Y       0.2710      Z     -10.1079
       Tot      10.6395
    Quadrupole Moments (Debye-Ang)
        XX     -29.6910     XY      -1.0006     YY     -73.3641
        XZ      22.7831     YZ      -0.4711     ZZ     -25.7638
    Octopole Moments (Debye-Ang^2)
       XXX      64.5944    XXY       0.7831    XYY      50.4635
       YYY      -9.5578    XXZ      40.6831    XYZ       3.2217
       YYZ     154.3673    XZZ     -48.8045    YZZ      -0.7400
       ZZZ     252.1085
    Hexadecapole Moments (Debye-Ang^3)
      XXXX   -1133.5073   XXXY       0.4797   XXYY    -319.9368
      XYYY      19.6398   YYYY     -88.0867   XXXZ    -323.1929
      XXYZ      -4.5489   XYYZ    -236.2677   YYYZ      19.4640
      XXZZ    -341.8587   XYZZ      -5.2753   YYZZ    -539.4856
      XZZZ    -171.5843   YZZZ       8.2729   ZZZZ   -2083.2727
 -----------------------------------------------------------------
 Calculating analytic gradient of the SCF energy
 Gradient of SCF Energy
            1           2           3           4           5           6
    1   0.0000189   0.0196247  -0.0005621   0.0022202   0.0004469  -0.0358121
    2  -0.0009961   0.0001520   0.0002148   0.0000787   0.0000800  -0.0005366
    3  -0.0135615  -0.0090008  -0.0011237   0.0321419   0.0005656   0.0014196
            7           8           9          10          11          12
    1  -0.0018333   0.0419059  -0.0417930   0.0357407   0.0017715  -0.0022723
    2   0.0008280  -0.0002796   0.0019953  -0.0026412   0.0007069  -0.0009660
    3  -0.0001549   0.0007038  -0.0006608  -0.0013654   0.0001706  -0.0321016
           13          14          15          16
    1  -0.0004414  -0.0194642   0.0005435  -0.0000940
    2   0.0000676   0.0015633   0.0002402  -0.0005072
    3  -0.0005747   0.0091293   0.0010684   0.0133442
 Max gradient component =       4.191E-02
 RMS gradient           =       1.404E-02
 Gradient time:  CPU 1.89 s  wall 1.91 s
 Geometry Optimization Parameters
   NAtoms,    NIC,     NZ,  NCons,   NDum,   NFix, NCnnct, MaxDiis
       16     111       0       1       0       0       0       0


** CONSTRAINED OPTIMIZATION IN DELOCALIZED INTERNAL COORDINATES **
   Searching for a Minimum

   Optimization Cycle:   1

                       Coordinates (Angstroms)
     ATOM                X               Y               Z
      1  S         0.0023888700    0.0607727500    0.0018326900
      2  C         1.7370761900    0.0331584900    0.0032322900
      3  H         2.2761273700    0.0528903200    0.9404255700
      4  C         2.2416920400   -0.0154620100   -1.2696579800
      5  H         3.3028578000   -0.0400536500   -1.4897249600
      6  C         1.2247922200   -0.0161296800   -2.2681146400
      7  H         1.4267479000   -0.0265098700   -3.3333450100
      8  C        -0.0539377100    0.0288038800   -1.7517096600
      9  C        -1.3245081500    0.0488998800   -2.4563634200
     10  C        -2.6032000400    0.0938381100   -1.9396758600
     11  H        -2.8048714300    0.1374998700   -0.8751382300
     12  C        -3.6197971500    0.1108380600   -2.9382378500
     13  H        -4.6804323200    0.1536084300   -2.7184234200
     14  C        -3.1149166900    0.0804970200   -4.2115443000
     15  H        -3.6535316200    0.0924579300   -5.1492181000
     16  S        -1.3814420500    0.0126786800   -4.2102671700
   Point Group: c1    Number of degrees of freedom:    42


   Energy is  -1104.565615438

              Constraints and their Current Values
                                        Value     Constraint
   Dihedral:        6   8   9  10     -180.000      180.000

 Attempting to Generate Delocalized Internal Coordinates

 41 Hessian modes will be used to form the next step
  Hessian Eigenvalues:
     0.045000    0.045000    0.045000    0.045000    0.045000    0.045000
     0.045002    0.045002    0.045003    0.045004    0.045011    0.045012
     0.159943    0.159949    0.159991    0.159992    0.160000    0.160000
     0.221282    0.221282    0.237835    0.237839    0.250000    0.250000
     0.294264    0.294663    0.312518    0.312618    0.354736    0.354850
     0.355125    0.355132    0.358226    0.358329    0.378510    0.404854
     0.404909    0.463547    0.463616    0.497922    0.497945

 Minimum Search - Taking Simple RFO Step
 Searching for Lamda that Minimizes Along All modes
 Value Taken    Lamda =  -0.01190536
 Step Taken.  Stepsize is  0.180403

                             Maximum     Tolerance    Cnvgd?
         Gradient           0.031728      0.000300      NO
         Displacement       0.093314      0.001200      NO
         Energy change     *********      0.000001      NO


 New Cartesian Coordinates Obtained by Inverse Iteration

 Displacement from previous Coordinates is:  0.337346
 ----------------------------------------------------------------
             Standard Nuclear Orientation (Angstroms)
    I     Atom           X                Y                Z
 ----------------------------------------------------------------
    1      S      -0.0465679789     0.0692891790     0.0111568564
    2      C       1.6793241108     0.0290764053    -0.0230230579
    3      H       2.2205108824     0.0407462711     0.9151378671
    4      C       2.2138626910    -0.0145193761    -1.3070128662
    5      H       3.2762689417    -0.0438801149    -1.5180439593
    6      C       1.2242572991    -0.0106216865    -2.2931483690
    7      H       1.4365868763    -0.0255797085    -3.3565946580
    8      C      -0.0744330636     0.0354434044    -1.7538932318
    9      C      -1.3038973217     0.0546505918    -2.4540271621
   10      C      -2.6025884201     0.1007138100    -1.9148659156
   11      H      -2.8145012511     0.1404970518    -0.8519712528
   12      C      -3.5920470080     0.1115103576    -2.9011479616
   13      H      -4.6542339036     0.1490529870    -2.6903176202
   14      C      -3.0573692255     0.0743742764    -4.1852709782
   15      H      -3.5981980868     0.0782291037    -5.1237099949
   16      S      -1.3319293121     0.0188056579    -4.2191977459
 ----------------------------------------------------------------
 Nuclear Repulsion Energy =   630.8214059821 hartrees
 There are       43 alpha and       42 beta electrons
 Applying Cartesian multipole field
    Component          Value
    ---------          -----
     (2,0,0)        1.00000E-11
     (0,2,0)        2.00000E-11
     (0,0,2)       -3.00000E-12
 Nucleus-field energy     =     0.0000000052 hartrees
 Requested basis set is 6-31++G(d,p)
 There are 76 shells and 234 basis functions
 A cutoff of  1.0D-12 yielded   2541 shell pairs
 There are     25061 function pairs

 Q-Chem warning in module /project/projectdirs/jcesr/qchem/qc44/cnl_qc441/compile/cori/qc_src/libqints/qchem/aobasis.C, line 68:

 Using reconstructed effective core potential

 Smallest overlap matrix eigenvalue = 6.35E-07
 Linear dependence detected in AO basis
 Number of orthogonalized atomic orbitals = 233
 Maximum deviation from orthogonality = 1.232E-10
 Guess MOs from SCF MO coefficient file
 Reading MOs from coefficient file
 Reading MOs from coefficient file
 An unrestricted hybrid HF-DFT SCF calculation will be
 performed using Pulay DIIS extrapolation
 Exchange:     0.2000 Hartree-Fock + 0.0800 Slater + 0.7200 B88
 Correlation:  0.1900 VWN1RPA + 0.8100 LYP
 Using SG-1 standard quadrature grid
 SCF converges when DIIS error is below 1.0E-08
 Geometry optimization detected.  Setting ReadMinima to 0
 Setting SaveMinima to 0
 ---------------------------------------
  Cycle       Energy         DIIS Error
 ---------------------------------------
    1   -1104.5692844880      1.98E-03
    2   -1104.5707171987      2.60E-04
    3   -1104.5701131203      3.89E-04
    4   -1104.5712739176      8.78E-05
    5   -1104.5713241968      3.53E-05
    6   -1104.5713347788      5.14E-06
    7   -1104.5713355802      1.73E-06
    8   -1104.5713358875      7.82E-07
    9   -1104.5713359772      5.29E-07
   10   -1104.5713360231      2.61E-07
   11   -1104.5713360341      1.25E-07
   12   -1104.5713360359      7.92E-08
   13   -1104.5713360370      2.67E-08
   14   -1104.5713360374      1.57E-08
   15   -1104.5713360373      5.23E-09 Convergence criterion met
 ---------------------------------------
 <S^2> = 0.7672
 SCF time:  CPU 10.16 s  wall 9.66 s
 SCF   energy in the final basis set = -1104.5713360373
 Total energy in the final basis set = -1104.5713360373
 
 --------------------------------------------------------------
 
                    Orbital Energies (a.u.)
 --------------------------------------------------------------
 
 Alpha MOs
 -- Occupied --
-89.098 -89.098 -10.431 -10.430 -10.418 -10.418 -10.392 -10.392
-10.380 -10.380  -8.157  -8.157  -6.121  -6.121  -6.117  -6.117
 -6.114  -6.114  -1.086  -1.061  -0.957  -0.935  -0.921  -0.881
 -0.787  -0.760  -0.723  -0.714  -0.704  -0.647  -0.594  -0.593
 -0.588  -0.584  -0.581  -0.555  -0.551  -0.538  -0.523  -0.471
 -0.444  -0.435  -0.392
 -- Virtual --
 -0.248  -0.178  -0.162  -0.156  -0.129  -0.126  -0.112  -0.107
 -0.102  -0.100  -0.092  -0.091  -0.077  -0.075  -0.065  -0.052
 -0.051  -0.041  -0.035  -0.027  -0.019  -0.017  -0.011  -0.010
 -0.009   0.005   0.011   0.014   0.016   0.021   0.024   0.024
  0.030   0.033   0.037   0.040   0.043   0.047   0.056   0.061
  0.070   0.076   0.079   0.082   0.089   0.101   0.103   0.108
  0.110   0.122   0.123   0.139   0.145   0.153   0.165   0.177
  0.185   0.194   0.211   0.216   0.223   0.238   0.241   0.244
  0.304   0.324   0.352   0.357   0.388   0.398   0.414   0.437
  0.449   0.470   0.474   0.474   0.482   0.485   0.508   0.533
  0.546   0.555   0.557   0.570   0.577   0.578   0.613   0.618
  0.645   0.651   0.656   0.676   0.701   0.754   0.767   0.781
  0.782   0.786   0.800   0.816   0.820   0.835   0.842   0.847
  0.865   0.875   0.913   0.933   0.935   0.964   0.981   1.013
  1.018   1.023   1.059   1.080   1.096   1.147   1.164   1.164
  1.173   1.181   1.186   1.291   1.300   1.318   1.374   1.445
  1.478   1.505   1.531   1.641   1.679   1.683   1.730   1.734
  1.756   1.779   1.784   1.846   1.880   1.889   1.891   1.943
  1.984   2.004   2.008   2.037   2.070   2.073   2.154   2.194
  2.199   2.257   2.265   2.271   2.300   2.325   2.328   2.350
  2.370   2.371   2.406   2.432   2.502   2.519   2.544   2.582
  2.689   2.696   2.759   2.762   2.970   3.033   3.105   3.114
  3.225   3.253   3.552   3.573   3.799   3.809   4.047   4.095
  4.137   4.142   4.228   4.348   4.488   4.541
 
 Beta MOs
 -- Occupied --
-89.098 -89.098 -10.429 -10.429 -10.414 -10.414 -10.390 -10.390
-10.380 -10.380  -8.157  -8.157  -6.121  -6.121  -6.117  -6.117
 -6.114  -6.114  -1.081  -1.055  -0.951  -0.932  -0.918  -0.871
 -0.783  -0.756  -0.719  -0.711  -0.702  -0.644  -0.593  -0.585
 -0.582  -0.579  -0.579  -0.549  -0.538  -0.536  -0.522  -0.443
 -0.439  -0.432
 -- Virtual --
 -0.327  -0.227  -0.162  -0.161  -0.154  -0.125  -0.115  -0.111
 -0.101  -0.100  -0.094  -0.091  -0.090  -0.077  -0.074  -0.065
 -0.052  -0.050  -0.040  -0.034  -0.026  -0.017  -0.016  -0.010
 -0.010  -0.008   0.007   0.011   0.014   0.017   0.022   0.025
  0.025   0.033   0.034   0.038   0.043   0.043   0.047   0.056
  0.063   0.071   0.077   0.081   0.084   0.092   0.101   0.103
  0.108   0.112   0.124   0.124   0.139   0.146   0.154   0.165
  0.178   0.187   0.195   0.213   0.218   0.223   0.239   0.243
  0.247   0.305   0.326   0.352   0.357   0.391   0.400   0.415
  0.438   0.450   0.471   0.483   0.484   0.489   0.494   0.508
  0.535   0.550   0.556   0.558   0.579   0.579   0.584   0.615
  0.620   0.651   0.657   0.658   0.682   0.702   0.755   0.773
  0.782   0.787   0.787   0.802   0.817   0.823   0.836   0.844
  0.848   0.867   0.877   0.914   0.934   0.936   0.965   0.986
  1.017   1.022   1.028   1.062   1.089   1.099   1.149   1.168
  1.170   1.182   1.182   1.197   1.300   1.303   1.323   1.378
  1.449   1.490   1.519   1.543   1.647   1.686   1.686   1.731
  1.736   1.763   1.783   1.786   1.851   1.883   1.894   1.900
  1.948   1.994   2.016   2.017   2.039   2.076   2.084   2.160
  2.198   2.202   2.259   2.272   2.279   2.301   2.329   2.334
  2.351   2.374   2.378   2.410   2.436   2.504   2.524   2.550
  2.584   2.692   2.701   2.760   2.764   2.971   3.035   3.105
  3.114   3.226   3.254   3.554   3.575   3.799   3.809   4.053
  4.102   4.140   4.145   4.235   4.355   4.492   4.544
 --------------------------------------------------------------
 
          Ground-State Mulliken Net Atomic Charges

     Atom                 Charge (a.u.)    Spin (a.u.)
  --------------------------------------------------------
      1 S                    -0.051635      -0.049311
      2 C                     0.108437       0.329289
      3 H                     0.257205      -0.016092
      4 C                    -0.350028      -0.035054
      5 H                     0.176903       0.000608
      6 C                     0.496630       0.148076
      7 H                     0.153366      -0.010199
      8 C                    -0.290862       0.132707
      9 C                    -0.291040       0.132691
     10 C                     0.496825       0.148025
     11 H                     0.153395      -0.010196
     12 C                    -0.350142      -0.035004
     13 H                     0.176892       0.000605
     14 C                     0.108515       0.329194
     15 H                     0.257209      -0.016088
     16 S                    -0.051669      -0.049251
  --------------------------------------------------------
  Sum of atomic charges =     1.000000
  Sum of spin   charges =     1.000000

 -----------------------------------------------------------------
                    Cartesian Multipole Moments
 -----------------------------------------------------------------
    Charge (ESU x 10^10)
                 4.8032
    Dipole Moment (Debye)
         X      -3.3092      Y       0.2600      Z     -10.1066
       Tot      10.6378
    Quadrupole Moments (Debye-Ang)
        XX     -31.0255     XY      -0.9870     YY     -73.3650
        XZ      21.2646     YZ      -0.4010     ZZ     -25.4765
    Octopole Moments (Debye-Ang^2)
       XXX      67.3195    XXY       0.1062    XYY      50.4674
       YYY     -10.3140    XXZ      45.5666    XYZ       2.8165
       YYZ     154.3785    XZZ     -42.6223    YZZ      -1.4101
       ZZZ     250.2862
    Hexadecapole Moments (Debye-Ang^3)
      XXXX   -1116.5621   XXXY       1.8978   XXYY    -313.1463
      XYYY      20.0172   YYYY     -88.1735   XXXZ    -331.2604
      XXYZ      -2.5062   XYYZ    -229.7583   YYYZ      20.6528
      XXZZ    -362.7054   XYZZ      -3.2609   YYZZ    -538.1674
      XZZZ    -184.2325   YZZZ      11.5508   ZZZZ   -2070.9480
 -----------------------------------------------------------------
 Calculating analytic gradient of the SCF energy
 Gradient of SCF Energy
            1           2           3           4           5           6
    1  -0.0095233   0.0035544  -0.0010661   0.0009876  -0.0000942  -0.0073118
    2   0.0000849   0.0000249   0.0001780  -0.0001086  -0.0000242  -0.0007912
    3   0.0024048  -0.0065389   0.0001821   0.0051459  -0.0016221  -0.0033010
            7           8           9          10          11          12
    1   0.0010669   0.0150458  -0.0150098   0.0073213  -0.0010595  -0.0010189
    2   0.0005248   0.0000378   0.0007261  -0.0010994   0.0005625  -0.0002114
    3  -0.0002156   0.0028977  -0.0028435   0.0033392   0.0001875  -0.0051451
           13          14          15          16
    1   0.0000936  -0.0035305   0.0010683   0.0094763
    2   0.0000269   0.0004778   0.0001225  -0.0005316
    3   0.0016146   0.0065277  -0.0001895  -0.0024436
 Max gradient component =       1.505E-02
 RMS gradient           =       4.492E-03
 Gradient time:  CPU 1.93 s  wall 1.90 s
 Geometry Optimization Parameters
   NAtoms,    NIC,     NZ,  NCons,   NDum,   NFix, NCnnct, MaxDiis
       16     111       0       1       0       0       0       0

 Cartesian Hessian Update
 Hessian Updated using BFGS Update


** CONSTRAINED OPTIMIZATION IN DELOCALIZED INTERNAL COORDINATES **
   Searching for a Minimum

   Optimization Cycle:   2

                       Coordinates (Angstroms)
     ATOM                X               Y               Z
      1  S        -0.0465679789    0.0692891790    0.0111568564
      2  C         1.6793241108    0.0290764053   -0.0230230579
      3  H         2.2205108824    0.0407462711    0.9151378671
      4  C         2.2138626910   -0.0145193761   -1.3070128662
      5  H         3.2762689417   -0.0438801149   -1.5180439593
      6  C         1.2242572991   -0.0106216865   -2.2931483690
      7  H         1.4365868763   -0.0255797085   -3.3565946580
      8  C        -0.0744330636    0.0354434044   -1.7538932318
      9  C        -1.3038973217    0.0546505918   -2.4540271621
     10  C        -2.6025884201    0.1007138100   -1.9148659156
     11  H        -2.8145012511    0.1404970518   -0.8519712528
     12  C        -3.5920470080    0.1115103576   -2.9011479616
     13  H        -4.6542339036    0.1490529870   -2.6903176202
     14  C        -3.0573692255    0.0743742764   -4.1852709782
     15  H        -3.5981980868    0.0782291037   -5.1237099949
     16  S        -1.3319293121    0.0188056579   -4.2191977459
   Point Group: c1    Number of degrees of freedom:    42


   Energy is  -1104.571336037

              Constraints and their Current Values
                                        Value     Constraint
   Dihedral:        6   8   9  10     -180.000      180.000
 Hessian Updated using BFGS Update

 41 Hessian modes will be used to form the next step
  Hessian Eigenvalues:
     0.044842    0.045000    0.045000    0.045000    0.045000    0.045000
     0.045001    0.045002    0.045003    0.045004    0.045011    0.045012
     0.159342    0.159946    0.159992    0.159993    0.160000    0.161088
     0.220916    0.221282    0.237837    0.245079    0.250000    0.270776
     0.293311    0.294463    0.304079    0.312568    0.354672    0.354820
     0.355104    0.355129    0.358170    0.358302    0.383006    0.404881
     0.426580    0.443371    0.463582    0.486117    0.497933

 Minimum Search - Taking Simple RFO Step
 Searching for Lamda that Minimizes Along All modes
 Value Taken    Lamda =  -0.00141192
 Step Taken.  Stepsize is  0.074832

                             Maximum     Tolerance    Cnvgd?
         Gradient           0.011154      0.000300      NO
         Displacement       0.040621      0.001200      NO
         Energy change     -0.005721      0.000001      NO


 New Cartesian Coordinates Obtained by Inverse Iteration

 Displacement from previous Coordinates is:  0.115376
 ----------------------------------------------------------------
             Standard Nuclear Orientation (Angstroms)
    I     Atom           X                Y                Z
 ----------------------------------------------------------------
    1      S      -0.0255393054     0.0733097668     0.0146615178
    2      C       1.6924371891     0.0260730149    -0.0124072727
    3      H       2.2403013119     0.0314017991     0.9227890838
    4      C       2.2217777127    -0.0138421209    -1.3033433128
    5      H       3.2849105458    -0.0469032598    -1.5081436773
    6      C       1.2327562668    -0.0062197222    -2.2853087209
    7      H       1.4432296182    -0.0255173402    -3.3484861877
    8      C      -0.0786896277     0.0401202194    -1.7534367796
    9      C      -1.2995132297     0.0591976921    -2.4546376158
   10      C      -2.6109709896     0.1055355041    -1.9228876015
   11      H      -2.8210908049     0.1409952867    -0.8600613552
   12      C      -3.5999710168     0.1123010845    -2.9048962504
   13      H      -4.6631049748     0.1457822510    -2.7001687877
   14      C      -3.0705792303     0.0717098650    -4.1957918340
   15      H      -3.6183006420     0.0696615657    -5.1310740654
   16      S      -1.3526075932     0.0241826037    -4.2227371906
 ----------------------------------------------------------------
 Nuclear Repulsion Energy =   629.7508138988 hartrees
 There are       43 alpha and       42 beta electrons
 Applying Cartesian multipole field
    Component          Value
    ---------          -----
     (2,0,0)        1.00000E-11
     (0,2,0)        2.00000E-11
     (0,0,2)       -3.00000E-12
 Nucleus-field energy     =     0.0000000053 hartrees
 Requested basis set is 6-31++G(d,p)
 There are 76 shells and 234 basis functions
 A cutoff of  1.0D-12 yielded   2535 shell pairs
 There are     25001 function pairs

 Q-Chem warning in module /project/projectdirs/jcesr/qchem/qc44/cnl_qc441/compile/cori/qc_src/libqints/qchem/aobasis.C, line 68:

 Using reconstructed effective core potential

 Smallest overlap matrix eigenvalue = 6.36E-07
 Linear dependence detected in AO basis
 Number of orthogonalized atomic orbitals = 233
 Maximum deviation from orthogonality = 2.460E-11
 Guess MOs from SCF MO coefficient file
 Reading MOs from coefficient file
 Reading MOs from coefficient file
 An unrestricted hybrid HF-DFT SCF calculation will be
 performed using Pulay DIIS extrapolation
 Exchange:     0.2000 Hartree-Fock + 0.0800 Slater + 0.7200 B88
 Correlation:  0.1900 VWN1RPA + 0.8100 LYP
 Using SG-1 standard quadrature grid
 SCF converges when DIIS error is below 1.0E-08
 Geometry optimization detected.  Setting ReadMinima to 0
 Setting SaveMinima to 0
 ---------------------------------------
  Cycle       Energy         DIIS Error
 ---------------------------------------
    1   -1104.5646330295      6.01E-04
    2   -1104.5720710191      9.62E-05
    3   -1104.5719300060      1.67E-04
    4   -1104.5721381967      2.89E-05
    5   -1104.5721441120      1.16E-05
    6   -1104.5721451904      1.56E-06
    7   -1104.5721452225      6.14E-07
    8   -1104.5721452271      2.38E-07
    9   -1104.5721452270      7.16E-08
   10   -1104.5721452296      2.99E-08
   11   -1104.5721452285      2.04E-08
   12   -1104.5721452288      1.32E-08
   13   -1104.5721452287      4.33E-09 Convergence criterion met
 ---------------------------------------
 <S^2> = 0.7675
 SCF time:  CPU 8.58 s  wall 9.11 s
 SCF   energy in the final basis set = -1104.5721452287
 Total energy in the final basis set = -1104.5721452287
 
 --------------------------------------------------------------
 
                    Orbital Energies (a.u.)
 --------------------------------------------------------------
 
 Alpha MOs
 -- Occupied --
-89.098 -89.098 -10.432 -10.431 -10.419 -10.419 -10.392 -10.392
-10.380 -10.380  -8.157  -8.157  -6.121  -6.121  -6.117  -6.117
 -6.114  -6.114  -1.086  -1.060  -0.958  -0.934  -0.920  -0.881
 -0.789  -0.759  -0.723  -0.713  -0.702  -0.649  -0.595  -0.593
 -0.589  -0.586  -0.579  -0.555  -0.552  -0.536  -0.520  -0.472
 -0.443  -0.435  -0.391
 -- Virtual --
 -0.249  -0.178  -0.162  -0.153  -0.129  -0.125  -0.115  -0.107
 -0.101  -0.100  -0.093  -0.091  -0.077  -0.075  -0.066  -0.052
 -0.052  -0.041  -0.037  -0.028  -0.019  -0.017  -0.011  -0.010
 -0.009   0.005   0.011   0.013   0.016   0.021   0.024   0.024
  0.030   0.034   0.037   0.040   0.043   0.047   0.055   0.061
  0.070   0.076   0.079   0.082   0.088   0.100   0.102   0.108
  0.110   0.123   0.123   0.140   0.144   0.153   0.166   0.177
  0.184   0.193   0.211   0.215   0.223   0.239   0.242   0.244
  0.301   0.322   0.352   0.357   0.382   0.399   0.416   0.436
  0.450   0.472   0.474   0.475   0.482   0.486   0.508   0.530
  0.546   0.554   0.557   0.570   0.576   0.578   0.612   0.616
  0.644   0.649   0.652   0.675   0.699   0.753   0.769   0.780
  0.784   0.786   0.803   0.818   0.821   0.834   0.840   0.849
  0.864   0.876   0.915   0.934   0.936   0.963   0.981   1.010
  1.017   1.020   1.058   1.081   1.094   1.150   1.163   1.165
  1.172   1.179   1.185   1.290   1.301   1.314   1.375   1.444
  1.481   1.508   1.532   1.645   1.674   1.675   1.731   1.734
  1.752   1.778   1.785   1.844   1.873   1.881   1.888   1.943
  1.980   2.005   2.009   2.029   2.067   2.074   2.158   2.193
  2.198   2.252   2.268   2.271   2.299   2.323   2.327   2.351
  2.368   2.370   2.407   2.431   2.503   2.517   2.543   2.580
  2.687   2.698   2.755   2.761   2.970   3.035   3.105   3.116
  3.223   3.249   3.549   3.570   3.798   3.810   4.047   4.095
  4.135   4.141   4.229   4.344   4.486   4.537
 
 Beta MOs
 -- Occupied --
-89.098 -89.098 -10.430 -10.429 -10.414 -10.414 -10.390 -10.390
-10.380 -10.380  -8.157  -8.157  -6.122  -6.122  -6.118  -6.118
 -6.115  -6.115  -1.080  -1.055  -0.952  -0.931  -0.918  -0.870
 -0.784  -0.755  -0.719  -0.710  -0.700  -0.646  -0.593  -0.586
 -0.584  -0.579  -0.577  -0.551  -0.538  -0.534  -0.519  -0.445
 -0.439  -0.431
 -- Virtual --
 -0.326  -0.228  -0.162  -0.160  -0.151  -0.125  -0.115  -0.113
 -0.100  -0.100  -0.095  -0.092  -0.091  -0.077  -0.074  -0.065
 -0.051  -0.050  -0.040  -0.036  -0.027  -0.016  -0.016  -0.010
 -0.009  -0.009   0.006   0.012   0.014   0.017   0.022   0.024
  0.025   0.032   0.034   0.038   0.043   0.043   0.047   0.055
  0.063   0.071   0.078   0.081   0.084   0.091   0.101   0.103
  0.108   0.113   0.123   0.125   0.140   0.145   0.154   0.167
  0.178   0.187   0.194   0.213   0.218   0.224   0.240   0.244
  0.247   0.302   0.323   0.352   0.357   0.385   0.400   0.417
  0.438   0.451   0.473   0.482   0.483   0.490   0.495   0.508
  0.532   0.551   0.555   0.558   0.578   0.579   0.584   0.614
  0.618   0.649   0.653   0.656   0.681   0.700   0.754   0.774
  0.780   0.788   0.788   0.805   0.819   0.823   0.835   0.842
  0.851   0.867   0.878   0.916   0.935   0.938   0.964   0.985
  1.014   1.021   1.025   1.061   1.090   1.097   1.152   1.169
  1.170   1.180   1.181   1.196   1.299   1.303   1.319   1.379
  1.447   1.492   1.522   1.544   1.652   1.677   1.681   1.732
  1.736   1.759   1.782   1.787   1.850   1.876   1.886   1.898
  1.948   1.990   2.017   2.018   2.032   2.078   2.080   2.164
  2.197   2.201   2.253   2.275   2.278   2.300   2.326   2.334
  2.353   2.373   2.375   2.411   2.435   2.506   2.522   2.548
  2.582   2.690   2.703   2.757   2.763   2.971   3.036   3.106
  3.116   3.225   3.251   3.551   3.571   3.798   3.811   4.053
  4.102   4.139   4.144   4.236   4.351   4.490   4.540
 --------------------------------------------------------------
 
          Ground-State Mulliken Net Atomic Charges

     Atom                 Charge (a.u.)    Spin (a.u.)
  --------------------------------------------------------
      1 S                    -0.044642      -0.048989
      2 C                     0.122233       0.331378
      3 H                     0.259432      -0.016214
      4 C                    -0.364637      -0.036779
      5 H                     0.176484       0.000659
      6 C                     0.483079       0.146351
      7 H                     0.153772      -0.010188
      8 C                    -0.285832       0.133796
      9 C                    -0.285722       0.133774
     10 C                     0.483302       0.146330
     11 H                     0.153791      -0.010186
     12 C                    -0.364687      -0.036752
     13 H                     0.176482       0.000657
     14 C                     0.122269       0.331345
     15 H                     0.259433      -0.016212
     16 S                    -0.044757      -0.048968
  --------------------------------------------------------
  Sum of atomic charges =     1.000000
  Sum of spin   charges =     1.000000

 -----------------------------------------------------------------
                    Cartesian Multipole Moments
 -----------------------------------------------------------------
    Charge (ESU x 10^10)
                 4.8032
    Dipole Moment (Debye)
         X      -3.3094      Y       0.2504      Z     -10.1065
       Tot      10.6375
    Quadrupole Moments (Debye-Ang)
        XX     -30.7069     XY      -0.9782     YY     -73.3700
        XZ      21.7984     YZ      -0.3938     ZZ     -25.3871
    Octopole Moments (Debye-Ang^2)
       XXX      66.6285    XXY      -0.3096    XYY      50.4727
       YYY     -10.8548    XXZ      44.1610    XYZ       2.6707
       YYZ     154.3933    XZZ     -44.9300    YZZ      -1.6933
       ZZZ     249.7317
    Hexadecapole Moments (Debye-Ang^3)
      XXXX   -1123.1604   XXXY       2.7778   XXYY    -315.7775
      XYYY      20.4856   YYYY     -88.2757   XXXZ    -328.6419
      XXYZ      -1.4782   XYYZ    -231.8933   YYYZ      21.9428
      XXZZ    -356.5502   XYZZ      -2.4982   YYZZ    -539.0181
      XZZZ    -178.5717   YZZZ      13.3578   ZZZZ   -2073.1128
 -----------------------------------------------------------------
 Calculating analytic gradient of the SCF energy
 Gradient of SCF Energy
            1           2           3           4           5           6
    1  -0.0023109   0.0019549  -0.0001621   0.0005089  -0.0001292  -0.0015931
    2   0.0001294  -0.0001105   0.0000784   0.0000703  -0.0000460  -0.0004690
    3   0.0004186  -0.0008617   0.0003724   0.0012849  -0.0004630  -0.0015701
            7           8           9          10          11          12
    1   0.0006265   0.0013405  -0.0013513   0.0015895  -0.0006095  -0.0005106
    2   0.0003163   0.0000357   0.0000754  -0.0004944   0.0003149   0.0000573
    3   0.0002501   0.0003405  -0.0003185   0.0015820  -0.0002690  -0.0012875
           13          14          15          16
    1   0.0001263  -0.0019640   0.0001685   0.0023157
    2  -0.0000426   0.0000492   0.0000644  -0.0000287
    3   0.0004637   0.0008507  -0.0003694  -0.0004238
 Max gradient component =       2.316E-03
 RMS gradient           =       9.165E-04
 Gradient time:  CPU 1.93 s  wall 1.93 s
 Geometry Optimization Parameters
   NAtoms,    NIC,     NZ,  NCons,   NDum,   NFix, NCnnct, MaxDiis
       16     111       0       1       0       0       0       0

 Cartesian Hessian Update
 Hessian Updated using BFGS Update


** CONSTRAINED OPTIMIZATION IN DELOCALIZED INTERNAL COORDINATES **
   Searching for a Minimum

   Optimization Cycle:   3

                       Coordinates (Angstroms)
     ATOM                X               Y               Z
      1  S        -0.0255393054    0.0733097668    0.0146615178
      2  C         1.6924371891    0.0260730149   -0.0124072727
      3  H         2.2403013119    0.0314017991    0.9227890838
      4  C         2.2217777127   -0.0138421209   -1.3033433128
      5  H         3.2849105458   -0.0469032598   -1.5081436773
      6  C         1.2327562668   -0.0062197222   -2.2853087209
      7  H         1.4432296182   -0.0255173402   -3.3484861877
      8  C        -0.0786896277    0.0401202194   -1.7534367796
      9  C        -1.2995132297    0.0591976921   -2.4546376158
     10  C        -2.6109709896    0.1055355041   -1.9228876015
     11  H        -2.8210908049    0.1409952867   -0.8600613552
     12  C        -3.5999710168    0.1123010845   -2.9048962504
     13  H        -4.6631049748    0.1457822510   -2.7001687877
     14  C        -3.0705792303    0.0717098650   -4.1957918340
     15  H        -3.6183006420    0.0696615657   -5.1310740654
     16  S        -1.3526075932    0.0241826037   -4.2227371906
   Point Group: c1    Number of degrees of freedom:    42


   Energy is  -1104.572145229

              Constraints and their Current Values
                                        Value     Constraint
   Dihedral:        6   8   9  10     -180.000      180.000
 Hessian Updated using BFGS Update

 39 Hessian modes will be used to form the next step
  Hessian Eigenvalues:
     0.044284    0.045000    0.045000    0.045000    0.045000    0.045002
     0.045002    0.045004    0.045004    0.045012    0.045066    0.149082
     0.159947    0.159992    0.160011    0.160264    0.216343    0.221282
     0.237836    0.238400    0.250000    0.258142    0.294421    0.295392
     0.303291    0.312568    0.354775    0.354964    0.355125    0.355132
     0.358262    0.358461    0.380222    0.404881    0.428656    0.453262
     0.463582    0.486173    0.497933

 Minimum Search - Taking Simple RFO Step
 Searching for Lamda that Minimizes Along All modes
 Value Taken    Lamda =  -0.00007607
 Step Taken.  Stepsize is  0.023085

                             Maximum     Tolerance    Cnvgd?
         Gradient           0.001880      0.000300      NO
         Displacement       0.010819      0.001200      NO
         Energy change     -0.000809      0.000001      NO


 New Cartesian Coordinates Obtained by Inverse Iteration

 Displacement from previous Coordinates is:  0.021172
 ----------------------------------------------------------------
             Standard Nuclear Orientation (Angstroms)
    I     Atom           X                Y                Z
 ----------------------------------------------------------------
    1      S      -0.0221711105     0.0739937276     0.0148533801
    2      C       1.6919684397     0.0260320041    -0.0119652325
    3      H       2.2419330897     0.0292618990     0.9215921090
    4      C       2.2219656884    -0.0132676889    -1.3034694218
    5      H       3.2858683120    -0.0473933041    -1.5043100140
    6      C       1.2338633926    -0.0047686712    -2.2837744965
    7      H       1.4396645945    -0.0272874292    -3.3480247344
    8      C      -0.0794165310     0.0416074567    -1.7533134737
    9      C      -1.2986844863     0.0607468372    -2.4549296441
   10      C      -2.6119608688     0.1071223851    -1.9244927628
   11      H      -2.8175008439     0.1392663051    -0.8604356921
   12      C      -3.6001266902     0.1128274687    -2.9047535644
   13      H      -4.6640830497     0.1450602444    -2.7038855592
   14      C      -3.0701630483     0.0715851183    -4.1962124896
   15      H      -3.6201386769     0.0675490313    -5.1297597432
   16      S      -1.3559729813     0.0254528258    -4.2230487107
 ----------------------------------------------------------------
 Nuclear Repulsion Energy =   629.8675288452 hartrees
 There are       43 alpha and       42 beta electrons
 Applying Cartesian multipole field
    Component          Value
    ---------          -----
     (2,0,0)        1.00000E-11
     (0,2,0)        2.00000E-11
     (0,0,2)       -3.00000E-12
 Nucleus-field energy     =     0.0000000053 hartrees
 Requested basis set is 6-31++G(d,p)
 There are 76 shells and 234 basis functions
 A cutoff of  1.0D-12 yielded   2537 shell pairs
 There are     25025 function pairs

 Q-Chem warning in module /project/projectdirs/jcesr/qchem/qc44/cnl_qc441/compile/cori/qc_src/libqints/qchem/aobasis.C, line 68:

 Using reconstructed effective core potential

 Smallest overlap matrix eigenvalue = 6.33E-07
 Linear dependence detected in AO basis
 Number of orthogonalized atomic orbitals = 233
 Maximum deviation from orthogonality = 7.134E-11
 Guess MOs from SCF MO coefficient file
 Reading MOs from coefficient file
 Reading MOs from coefficient file
 An unrestricted hybrid HF-DFT SCF calculation will be
 performed using Pulay DIIS extrapolation
 Exchange:     0.2000 Hartree-Fock + 0.0800 Slater + 0.7200 B88
 Correlation:  0.1900 VWN1RPA + 0.8100 LYP
 Using SG-1 standard quadrature grid
 SCF converges when DIIS error is below 1.0E-08
 Geometry optimization detected.  Setting ReadMinima to 0
 Setting SaveMinima to 0
 ---------------------------------------
  Cycle       Energy         DIIS Error
 ---------------------------------------
    1   -1104.5767914511      1.47E-04
    2   -1104.5721843437      1.97E-05
    3   -1104.5721839946      2.17E-05
    4   -1104.5721875707      7.19E-06
    5   -1104.5721879507      1.96E-06
    6   -1104.5721879772      8.90E-07
    7   -1104.5721879862      2.63E-07
    8   -1104.5721879891      7.69E-08
    9   -1104.5721879892      6.04E-08
   10   -1104.5721879894      2.49E-08
   11   -1104.5721879902      1.52E-08
   12   -1104.5721879898      5.33E-09 Convergence criterion met
 ---------------------------------------
 <S^2> = 0.7673
 SCF time:  CPU 7.87 s  wall 7.62 s
 SCF   energy in the final basis set = -1104.5721879898
 Total energy in the final basis set = -1104.5721879898
 
 --------------------------------------------------------------
 
                    Orbital Energies (a.u.)
 --------------------------------------------------------------
 
 Alpha MOs
 -- Occupied --
-89.098 -89.098 -10.432 -10.431 -10.418 -10.418 -10.392 -10.392
-10.380 -10.380  -8.157  -8.157  -6.122  -6.122  -6.118  -6.118
 -6.114  -6.114  -1.086  -1.061  -0.959  -0.934  -0.921  -0.880
 -0.789  -0.759  -0.723  -0.713  -0.702  -0.650  -0.595  -0.593
 -0.590  -0.586  -0.579  -0.555  -0.553  -0.535  -0.519  -0.472
 -0.444  -0.435  -0.391
 -- Virtual --
 -0.249  -0.177  -0.161  -0.152  -0.129  -0.125  -0.115  -0.107
 -0.100  -0.100  -0.092  -0.092  -0.077  -0.075  -0.066  -0.052
 -0.052  -0.041  -0.037  -0.028  -0.019  -0.017  -0.011  -0.010
 -0.009   0.005   0.012   0.013   0.016   0.021   0.024   0.024
  0.030   0.034   0.037   0.040   0.043   0.047   0.055   0.061
  0.069   0.076   0.079   0.082   0.088   0.100   0.102   0.108
  0.111   0.123   0.123   0.140   0.144   0.153   0.167   0.177
  0.185   0.193   0.211   0.216   0.224   0.240   0.242   0.244
  0.300   0.322   0.352   0.357   0.382   0.399   0.416   0.436
  0.451   0.473   0.474   0.475   0.482   0.486   0.508   0.530
  0.546   0.554   0.557   0.570   0.576   0.578   0.612   0.616
  0.643   0.648   0.652   0.675   0.699   0.753   0.769   0.779
  0.784   0.787   0.803   0.819   0.821   0.834   0.840   0.850
  0.864   0.877   0.915   0.934   0.937   0.963   0.981   1.010
  1.017   1.020   1.058   1.081   1.094   1.151   1.162   1.165
  1.172   1.179   1.186   1.291   1.301   1.314   1.375   1.444
  1.481   1.509   1.533   1.645   1.673   1.676   1.732   1.735
  1.751   1.779   1.786   1.844   1.872   1.880   1.888   1.944
  1.980   2.007   2.010   2.027   2.067   2.074   2.159   2.193
  2.198   2.252   2.269   2.270   2.299   2.323   2.328   2.352
  2.367   2.370   2.407   2.431   2.504   2.518   2.543   2.581
  2.687   2.699   2.756   2.762   2.971   3.035   3.106   3.116
  3.223   3.248   3.550   3.570   3.798   3.811   4.048   4.095
  4.136   4.142   4.229   4.344   4.486   4.537
 
 Beta MOs
 -- Occupied --
-89.098 -89.098 -10.430 -10.429 -10.414 -10.414 -10.390 -10.390
-10.380 -10.380  -8.158  -8.158  -6.122  -6.122  -6.118  -6.118
 -6.115  -6.115  -1.080  -1.055  -0.952  -0.932  -0.919  -0.870
 -0.784  -0.755  -0.719  -0.710  -0.700  -0.647  -0.594  -0.587
 -0.584  -0.579  -0.577  -0.551  -0.539  -0.534  -0.519  -0.445
 -0.439  -0.432
 -- Virtual --
 -0.326  -0.227  -0.161  -0.160  -0.150  -0.125  -0.115  -0.113
 -0.100  -0.100  -0.094  -0.091  -0.091  -0.077  -0.074  -0.065
 -0.051  -0.050  -0.040  -0.036  -0.027  -0.016  -0.016  -0.010
 -0.009  -0.009   0.006   0.012   0.014   0.017   0.022   0.024
  0.025   0.032   0.034   0.038   0.043   0.043   0.048   0.055
  0.063   0.071   0.078   0.081   0.084   0.091   0.101   0.103
  0.108   0.113   0.123   0.125   0.140   0.145   0.154   0.167
  0.178   0.187   0.194   0.213   0.218   0.224   0.240   0.245
  0.247   0.301   0.323   0.352   0.357   0.384   0.400   0.418
  0.438   0.452   0.474   0.482   0.483   0.490   0.496   0.509
  0.532   0.551   0.554   0.558   0.578   0.579   0.585   0.614
  0.618   0.649   0.653   0.656   0.681   0.700   0.754   0.775
  0.780   0.788   0.789   0.806   0.820   0.823   0.834   0.842
  0.851   0.867   0.878   0.917   0.935   0.939   0.964   0.985
  1.014   1.022   1.025   1.060   1.090   1.096   1.153   1.169
  1.170   1.180   1.181   1.196   1.300   1.304   1.318   1.379
  1.447   1.493   1.523   1.545   1.652   1.676   1.681   1.733
  1.737   1.758   1.783   1.788   1.850   1.876   1.885   1.898
  1.948   1.990   2.018   2.019   2.031   2.079   2.081   2.165
  2.197   2.201   2.253   2.277   2.278   2.300   2.326   2.334
  2.354   2.373   2.374   2.412   2.434   2.506   2.522   2.548
  2.583   2.690   2.704   2.758   2.764   2.972   3.037   3.106
  3.116   3.224   3.250   3.551   3.572   3.798   3.811   4.053
  4.102   4.139   4.145   4.236   4.351   4.490   4.540
 --------------------------------------------------------------
 
          Ground-State Mulliken Net Atomic Charges

     Atom                 Charge (a.u.)    Spin (a.u.)
  --------------------------------------------------------
      1 S                    -0.042037      -0.048379
      2 C                     0.122656       0.330991
      3 H                     0.259571      -0.016238
      4 C                    -0.363404      -0.035869
      5 H                     0.176538       0.000630
      6 C                     0.477364       0.144509
      7 H                     0.153448      -0.010145
      8 C                    -0.284190       0.134503
      9 C                    -0.284118       0.134498
     10 C                     0.477413       0.144500
     11 H                     0.153456      -0.010144
     12 C                    -0.363394      -0.035858
     13 H                     0.176538       0.000630
     14 C                     0.122657       0.330982
     15 H                     0.259571      -0.016237
     16 S                    -0.042068      -0.048372
  --------------------------------------------------------
  Sum of atomic charges =     1.000000
  Sum of spin   charges =     1.000000

 -----------------------------------------------------------------
                    Cartesian Multipole Moments
 -----------------------------------------------------------------
    Charge (ESU x 10^10)
                 4.8032
    Dipole Moment (Debye)
         X      -3.3096      Y       0.2444      Z     -10.1065
       Tot      10.6375
    Quadrupole Moments (Debye-Ang)
        XX     -30.7109     XY      -0.9716     YY     -73.3489
        XZ      21.8816     YZ      -0.3842     ZZ     -25.3801
    Octopole Moments (Debye-Ang^2)
       XXX      66.6270    XXY      -0.4511    XYY      50.4603
       YYY     -11.0249    XXZ      44.0573    XYZ       2.6339
       YYZ     154.3504    XZZ     -45.2855    YZZ      -1.8135
       ZZZ     249.6975
    Hexadecapole Moments (Debye-Ang^3)
      XXXX   -1123.2589   XXXY       3.0877   XXYY    -315.8743
      XYYY      20.6121   YYYY     -88.2482   XXXZ    -327.9748
      XXYZ      -1.1521   XYYZ    -232.0387   YYYZ      22.3482
      XXZZ    -355.9522   XYZZ      -2.2998   YYZZ    -538.8494
      XZZZ    -177.9417   YZZZ      14.0653   ZZZZ   -2073.5317
 -----------------------------------------------------------------
 Calculating analytic gradient of the SCF energy
 Gradient of SCF Energy
            1           2           3           4           5           6
    1  -0.0001639   0.0005492  -0.0001143  -0.0002656  -0.0000064   0.0000260
    2   0.0000372  -0.0000493   0.0000285   0.0000855  -0.0000552  -0.0002423
    3  -0.0000040  -0.0001521   0.0000403   0.0001280  -0.0001038  -0.0000121
            7           8           9          10          11          12
    1   0.0001947  -0.0004590   0.0004505  -0.0000342  -0.0001845   0.0002704
    2   0.0001727   0.0000373  -0.0000140  -0.0002289   0.0001610   0.0000705
    3   0.0000441  -0.0000505   0.0000559   0.0000160  -0.0000493  -0.0001302
           13          14          15          16
    1   0.0000033  -0.0005512   0.0001162   0.0001690
    2  -0.0000568  -0.0000054   0.0000298   0.0000293
    3   0.0001066   0.0001527  -0.0000412  -0.0000003
 Max gradient component =       5.512E-04
 RMS gradient           =       1.842E-04
 Gradient time:  CPU 1.89 s  wall 1.91 s
 Geometry Optimization Parameters
   NAtoms,    NIC,     NZ,  NCons,   NDum,   NFix, NCnnct, MaxDiis
       16     111       0       1       0       0       0       0

 Cartesian Hessian Update
 Hessian Updated using BFGS Update


** CONSTRAINED OPTIMIZATION IN DELOCALIZED INTERNAL COORDINATES **
   Searching for a Minimum

   Optimization Cycle:   4

                       Coordinates (Angstroms)
     ATOM                X               Y               Z
      1  S        -0.0221711105    0.0739937276    0.0148533801
      2  C         1.6919684397    0.0260320041   -0.0119652325
      3  H         2.2419330897    0.0292618990    0.9215921090
      4  C         2.2219656884   -0.0132676889   -1.3034694218
      5  H         3.2858683120   -0.0473933041   -1.5043100140
      6  C         1.2338633926   -0.0047686712   -2.2837744965
      7  H         1.4396645945   -0.0272874292   -3.3480247344
      8  C        -0.0794165310    0.0416074567   -1.7533134737
      9  C        -1.2986844863    0.0607468372   -2.4549296441
     10  C        -2.6119608688    0.1071223851   -1.9244927628
     11  H        -2.8175008439    0.1392663051   -0.8604356921
     12  C        -3.6001266902    0.1128274687   -2.9047535644
     13  H        -4.6640830497    0.1450602444   -2.7038855592
     14  C        -3.0701630483    0.0715851183   -4.1962124896
     15  H        -3.6201386769    0.0675490313   -5.1297597432
     16  S        -1.3559729813    0.0254528258   -4.2230487107
   Point Group: c1    Number of degrees of freedom:    42


   Energy is  -1104.572187990

              Constraints and their Current Values
                                        Value     Constraint
   Dihedral:        6   8   9  10     -180.000      180.000
 Hessian Updated using BFGS Update

 41 Hessian modes will be used to form the next step
  Hessian Eigenvalues:
     0.041342    0.045000    0.045000    0.045000    0.045000    0.045001
     0.045002    0.045004    0.045004    0.045009    0.045012    0.045070
     0.128022    0.159847    0.159947    0.159992    0.160000    0.160225
     0.218548    0.221282    0.237837    0.246353    0.249999    0.270000
     0.294390    0.295003    0.303982    0.312568    0.354714    0.354833
     0.355128    0.355160    0.358272    0.358820    0.377208    0.404882
     0.429466    0.453046    0.463581    0.490260    0.497933

 Minimum Search - Taking Simple RFO Step
 Searching for Lamda that Minimizes Along All modes
 Value Taken    Lamda =  -0.00000497
 Step Taken.  Stepsize is  0.007786

                             Maximum     Tolerance    Cnvgd?
         Gradient           0.000412      0.000300      NO
         Displacement       0.003758      0.001200      NO
         Energy change     -0.000043      0.000001      NO


 New Cartesian Coordinates Obtained by Inverse Iteration

 Displacement from previous Coordinates is:  0.008093
 ----------------------------------------------------------------
             Standard Nuclear Orientation (Angstroms)
    I     Atom           X                Y                Z
 ----------------------------------------------------------------
    1      S      -0.0220528560     0.0740637934     0.0148608365
    2      C       1.6914037067     0.0264395597    -0.0119771000
    3      H       2.2421672793     0.0293181772     0.9211399057
    4      C       2.2221178542    -0.0129296326    -1.3035011319
    5      H       3.2862399669    -0.0469664732    -1.5030667698
    6      C       1.2339273183    -0.0046034303    -2.2838412333
    7      H       1.4378089016    -0.0289827908    -3.3484470386
    8      C      -0.0792428460     0.0417561542    -1.7532907134
    9      C      -1.2988316567     0.0609716144    -2.4549815552
   10      C      -2.6120016121     0.1073311199    -1.9244347083
   11      H      -2.8157183881     0.1376119067    -0.8599471085
   12      C      -3.6002592840     0.1131392309    -2.9047264955
   13      H      -4.6644300203     0.1454000873    -2.7051270322
   14      C      -3.0695907123     0.0719488200    -4.1962124137
   15      H      -3.6203942331     0.0675929577    -5.1293007380
   16      S      -1.3560981884     0.0256971156    -4.2230767538
 ----------------------------------------------------------------
 Nuclear Repulsion Energy =   629.8871508355 hartrees
 There are       43 alpha and       42 beta electrons
 Applying Cartesian multipole field
    Component          Value
    ---------          -----
     (2,0,0)        1.00000E-11
     (0,2,0)        2.00000E-11
     (0,0,2)       -3.00000E-12
 Nucleus-field energy     =     0.0000000053 hartrees
 Requested basis set is 6-31++G(d,p)
 There are 76 shells and 234 basis functions
 A cutoff of  1.0D-12 yielded   2537 shell pairs
 There are     25025 function pairs

 Q-Chem warning in module /project/projectdirs/jcesr/qchem/qc44/cnl_qc441/compile/cori/qc_src/libqints/qchem/aobasis.C, line 68:

 Using reconstructed effective core potential

 Smallest overlap matrix eigenvalue = 6.33E-07
 Linear dependence detected in AO basis
 Number of orthogonalized atomic orbitals = 233
 Maximum deviation from orthogonality = 4.408E-11
 Guess MOs from SCF MO coefficient file
 Reading MOs from coefficient file
 Reading MOs from coefficient file
 An unrestricted hybrid HF-DFT SCF calculation will be
 performed using Pulay DIIS extrapolation
 Exchange:     0.2000 Hartree-Fock + 0.0800 Slater + 0.7200 B88
 Correlation:  0.1900 VWN1RPA + 0.8100 LYP
 Using SG-1 standard quadrature grid
 SCF converges when DIIS error is below 1.0E-08
 Geometry optimization detected.  Setting ReadMinima to 0
 Setting SaveMinima to 0
 ---------------------------------------
  Cycle       Energy         DIIS Error
 ---------------------------------------
    1   -1104.5724701478      2.82E-05
    2   -1104.5721906328      7.01E-06
    3   -1104.5721899341      1.17E-05
    4   -1104.5721909860      2.36E-06
    5   -1104.5721910301      5.71E-07
    6   -1104.5721910325      1.34E-07
    7   -1104.5721910316      7.00E-08
    8   -1104.5721910319      3.16E-08
    9   -1104.5721910330      1.92E-08
   10   -1104.5721910334      7.16E-09 Convergence criterion met
 ---------------------------------------
 <S^2> = 0.7673
 SCF time:  CPU 6.56 s  wall 6.28 s
 SCF   energy in the final basis set = -1104.5721910334
 Total energy in the final basis set = -1104.5721910334
 
 --------------------------------------------------------------
 
                    Orbital Energies (a.u.)
 --------------------------------------------------------------
 
 Alpha MOs
 -- Occupied --
-89.098 -89.098 -10.432 -10.431 -10.418 -10.418 -10.392 -10.392
-10.380 -10.380  -8.157  -8.157  -6.122  -6.122  -6.118  -6.118
 -6.115  -6.115  -1.086  -1.061  -0.959  -0.934  -0.921  -0.880
 -0.789  -0.759  -0.723  -0.713  -0.702  -0.650  -0.595  -0.593
 -0.590  -0.586  -0.579  -0.555  -0.553  -0.536  -0.519  -0.472
 -0.444  -0.435  -0.391
 -- Virtual --
 -0.249  -0.177  -0.162  -0.152  -0.129  -0.125  -0.115  -0.107
 -0.100  -0.100  -0.092  -0.092  -0.077  -0.075  -0.066  -0.052
 -0.052  -0.041  -0.037  -0.028  -0.019  -0.017  -0.011  -0.010
 -0.009   0.005   0.012   0.013   0.016   0.021   0.024   0.024
  0.030   0.034   0.037   0.040   0.043   0.047   0.055   0.061
  0.069   0.076   0.079   0.082   0.088   0.100   0.102   0.108
  0.111   0.123   0.123   0.140   0.144   0.153   0.167   0.176
  0.185   0.193   0.211   0.216   0.224   0.240   0.242   0.244
  0.300   0.322   0.352   0.357   0.382   0.399   0.416   0.436
  0.451   0.473   0.474   0.475   0.482   0.486   0.508   0.530
  0.546   0.554   0.557   0.569   0.576   0.578   0.612   0.616
  0.643   0.648   0.652   0.675   0.699   0.752   0.769   0.779
  0.784   0.787   0.803   0.819   0.821   0.833   0.839   0.850
  0.864   0.877   0.915   0.934   0.937   0.963   0.981   1.010
  1.017   1.020   1.058   1.081   1.094   1.152   1.162   1.165
  1.172   1.179   1.186   1.291   1.301   1.314   1.375   1.444
  1.482   1.509   1.533   1.645   1.673   1.676   1.732   1.736
  1.751   1.779   1.786   1.844   1.872   1.880   1.888   1.944
  1.980   2.008   2.011   2.027   2.067   2.074   2.159   2.193
  2.198   2.252   2.269   2.270   2.299   2.322   2.328   2.353
  2.367   2.370   2.407   2.430   2.504   2.517   2.543   2.581
  2.687   2.699   2.756   2.762   2.971   3.035   3.105   3.116
  3.223   3.248   3.550   3.570   3.798   3.811   4.047   4.095
  4.136   4.142   4.229   4.344   4.486   4.536
 
 Beta MOs
 -- Occupied --
-89.098 -89.098 -10.430 -10.429 -10.414 -10.414 -10.390 -10.390
-10.380 -10.380  -8.158  -8.158  -6.122  -6.122  -6.118  -6.118
 -6.115  -6.115  -1.080  -1.055  -0.952  -0.932  -0.919  -0.870
 -0.784  -0.755  -0.719  -0.710  -0.700  -0.647  -0.594  -0.587
 -0.584  -0.579  -0.577  -0.551  -0.539  -0.534  -0.519  -0.445
 -0.439  -0.432
 -- Virtual --
 -0.326  -0.227  -0.161  -0.160  -0.150  -0.125  -0.115  -0.113
 -0.100  -0.100  -0.094  -0.091  -0.091  -0.077  -0.074  -0.065
 -0.051  -0.050  -0.040  -0.036  -0.027  -0.017  -0.016  -0.010
 -0.009  -0.009   0.006   0.012   0.014   0.017   0.022   0.024
  0.025   0.032   0.034   0.038   0.043   0.043   0.048   0.055
  0.063   0.071   0.078   0.081   0.084   0.091   0.101   0.103
  0.108   0.113   0.123   0.125   0.140   0.145   0.154   0.167
  0.178   0.187   0.194   0.213   0.218   0.224   0.240   0.245
  0.247   0.301   0.323   0.352   0.357   0.384   0.400   0.418
  0.438   0.452   0.474   0.482   0.483   0.490   0.496   0.509
  0.532   0.551   0.554   0.558   0.578   0.579   0.585   0.613
  0.618   0.649   0.653   0.656   0.681   0.700   0.754   0.775
  0.780   0.788   0.789   0.806   0.820   0.823   0.834   0.842
  0.851   0.867   0.879   0.917   0.935   0.939   0.964   0.986
  1.014   1.022   1.025   1.060   1.090   1.096   1.153   1.169
  1.169   1.180   1.181   1.196   1.300   1.304   1.318   1.379
  1.447   1.493   1.523   1.545   1.652   1.676   1.681   1.733
  1.738   1.758   1.783   1.788   1.850   1.875   1.885   1.898
  1.948   1.990   2.018   2.019   2.031   2.079   2.081   2.165
  2.197   2.201   2.253   2.276   2.277   2.300   2.326   2.334
  2.354   2.373   2.374   2.412   2.434   2.506   2.522   2.548
  2.583   2.690   2.704   2.758   2.764   2.972   3.036   3.106
  3.116   3.224   3.249   3.551   3.572   3.798   3.811   4.053
  4.102   4.139   4.145   4.236   4.351   4.490   4.540
 --------------------------------------------------------------
 
          Ground-State Mulliken Net Atomic Charges

     Atom                 Charge (a.u.)    Spin (a.u.)
  --------------------------------------------------------
      1 S                    -0.041784      -0.048182
      2 C                     0.122292       0.330722
      3 H                     0.259521      -0.016241
      4 C                    -0.362082      -0.035420
      5 H                     0.176578       0.000614
      6 C                     0.475799       0.143948
      7 H                     0.153291      -0.010128
      8 C                    -0.283639       0.134688
      9 C                    -0.283599       0.134687
     10 C                     0.475801       0.143945
     11 H                     0.153295      -0.010128
     12 C                    -0.362067      -0.035416
     13 H                     0.176579       0.000614
     14 C                     0.122292       0.330718
     15 H                     0.259521      -0.016241
     16 S                    -0.041797      -0.048180
  --------------------------------------------------------
  Sum of atomic charges =     1.000000
  Sum of spin   charges =     1.000000

 -----------------------------------------------------------------
                    Cartesian Multipole Moments
 -----------------------------------------------------------------
    Charge (ESU x 10^10)
                 4.8032
    Dipole Moment (Debye)
         X      -3.3097      Y       0.2423      Z     -10.1065
       Tot      10.6374
    Quadrupole Moments (Debye-Ang)
        XX     -30.7174     XY      -0.9698     YY     -73.3478
        XZ      21.8912     YZ      -0.3803     ZZ     -25.3794
    Octopole Moments (Debye-Ang^2)
       XXX      66.6390    XXY      -0.4723    XYY      50.4601
       YYY     -11.0685    XXZ      44.0588    XYZ       2.6425
       YYZ     154.3477    XZZ     -45.3271    YZZ      -1.8446
       ZZZ     249.6949
    Hexadecapole Moments (Debye-Ang^3)
      XXXX   -1122.9966   XXXY       3.1344   XXYY    -315.8679
      XYYY      20.6453   YYYY     -88.2526   XXXZ    -327.7346
      XXYZ      -1.1255   XYYZ    -232.0344   YYYZ      22.4529
      XXZZ    -355.9475   XYZZ      -2.3271   YYZZ    -538.8284
      XZZZ    -177.9050   YZZZ      14.2384   ZZZZ   -2073.6463
 -----------------------------------------------------------------
 Calculating analytic gradient of the SCF energy
 Gradient of SCF Energy
            1           2           3           4           5           6
    1   0.0000799   0.0000742  -0.0000362  -0.0000565   0.0000065   0.0000768
    2  -0.0000018  -0.0000139   0.0000109   0.0000572  -0.0000428  -0.0001359
    3  -0.0000138  -0.0000113   0.0000077   0.0000099  -0.0000135   0.0000233
            7           8           9          10          11          12
    1   0.0000179  -0.0001961   0.0001962  -0.0000832  -0.0000124   0.0000593
    2   0.0000985   0.0000350  -0.0000007  -0.0001226   0.0000835   0.0000555
    3  -0.0000102   0.0000136  -0.0000126  -0.0000191   0.0000071  -0.0000127
           13          14          15          16
    1  -0.0000088  -0.0000745   0.0000368  -0.0000798
    2  -0.0000457  -0.0000051   0.0000171   0.0000109
    3   0.0000152   0.0000120  -0.0000085   0.0000129
 Max gradient component =       1.962E-04
 RMS gradient           =       6.272E-05
 Gradient time:  CPU 1.90 s  wall 1.92 s
 Geometry Optimization Parameters
   NAtoms,    NIC,     NZ,  NCons,   NDum,   NFix, NCnnct, MaxDiis
       16     111       0       1       0       0       0       0

 Cartesian Hessian Update
 Hessian Updated using BFGS Update


** CONSTRAINED OPTIMIZATION IN DELOCALIZED INTERNAL COORDINATES **
   Searching for a Minimum

   Optimization Cycle:   5

                       Coordinates (Angstroms)
     ATOM                X               Y               Z
      1  S        -0.0220528560    0.0740637934    0.0148608365
      2  C         1.6914037067    0.0264395597   -0.0119771000
      3  H         2.2421672793    0.0293181772    0.9211399057
      4  C         2.2221178542   -0.0129296326   -1.3035011319
      5  H         3.2862399669   -0.0469664732   -1.5030667698
      6  C         1.2339273183   -0.0046034303   -2.2838412333
      7  H         1.4378089016   -0.0289827908   -3.3484470386
      8  C        -0.0792428460    0.0417561542   -1.7532907134
      9  C        -1.2988316567    0.0609716144   -2.4549815552
     10  C        -2.6120016121    0.1073311199   -1.9244347083
     11  H        -2.8157183881    0.1376119067   -0.8599471085
     12  C        -3.6002592840    0.1131392309   -2.9047264955
     13  H        -4.6644300203    0.1454000873   -2.7051270322
     14  C        -3.0695907123    0.0719488200   -4.1962124137
     15  H        -3.6203942331    0.0675929577   -5.1293007380
     16  S        -1.3560981884    0.0256971156   -4.2230767538
   Point Group: c1    Number of degrees of freedom:    42


   Energy is  -1104.572191033

              Constraints and their Current Values
                                        Value     Constraint
   Dihedral:        6   8   9  10     -180.000      180.000
 Hessian Updated using BFGS Update

 39 Hessian modes will be used to form the next step
  Hessian Eigenvalues:
     0.031721    0.044907    0.045000    0.045000    0.045001    0.045002
     0.045004    0.045005    0.045012    0.045214    0.132637    0.159734
     0.159947    0.159992    0.160000    0.162279    0.219859    0.221282
     0.237837    0.243165    0.250000    0.266955    0.294438    0.294725
     0.298459    0.312568    0.354784    0.355023    0.355129    0.355362
     0.358272    0.358863    0.380149    0.404882    0.429595    0.455161
     0.463581    0.483155    0.497933

 Minimum Search - Taking Simple RFO Step
 Searching for Lamda that Minimizes Along All modes
 Value Taken    Lamda =   0.00000000
 Step Taken.  Stepsize is  0.004232

                             Maximum     Tolerance    Cnvgd?
         Gradient           0.000123      0.000300     YES
         Displacement       0.002644      0.001200      NO
         Energy change     -0.000003      0.000001      NO


 New Cartesian Coordinates Obtained by Inverse Iteration

 Displacement from previous Coordinates is:  0.004988
 ----------------------------------------------------------------
             Standard Nuclear Orientation (Angstroms)
    I     Atom           X                Y                Z
 ----------------------------------------------------------------
    1      S      -0.0223004768     0.0741803664     0.0148121130
    2      C       1.6910990761     0.0268431467    -0.0120477380
    3      H       2.2422414304     0.0297985754     0.9208668405
    4      C       2.2220296184    -0.0127096824    -1.3035473371
    5      H       3.2862034837    -0.0464214529    -1.5027919208
    6      C       1.2338305043    -0.0047594013    -2.2839280278
    7      H       1.4372783112    -0.0304548489    -3.3485708353
    8      C      -0.0791789631     0.0415760203    -1.7533185938
    9      C      -1.2989015970     0.0608479140    -2.4549517177
   10      C      -2.6119123222     0.1071833824    -1.9243416531
   11      H      -2.8152702777     0.1361940041    -0.8597658943
   12      C      -3.6001590822     0.1133302620    -2.9046871110
   13      H      -4.6643644524     0.1458917534    -2.7054205230
   14      C      -3.0692646073     0.0723397476    -4.1961567662
   15      H      -3.6204424950     0.0680768365    -5.1290454839
   16      S      -1.3558429203     0.0258715866    -4.2230354013
 ----------------------------------------------------------------
 Nuclear Repulsion Energy =   629.9051299694 hartrees
 There are       43 alpha and       42 beta electrons
 Applying Cartesian multipole field
    Component          Value
    ---------          -----
     (2,0,0)        1.00000E-11
     (0,2,0)        2.00000E-11
     (0,0,2)       -3.00000E-12
 Nucleus-field energy     =     0.0000000053 hartrees
 Requested basis set is 6-31++G(d,p)
 There are 76 shells and 234 basis functions
 A cutoff of  1.0D-12 yielded   2537 shell pairs
 There are     25025 function pairs

 Q-Chem warning in module /project/projectdirs/jcesr/qchem/qc44/cnl_qc441/compile/cori/qc_src/libqints/qchem/aobasis.C, line 68:

 Using reconstructed effective core potential

 Smallest overlap matrix eigenvalue = 6.33E-07
 Linear dependence detected in AO basis
 Number of orthogonalized atomic orbitals = 233
 Maximum deviation from orthogonality = 1.007E-10
 Guess MOs from SCF MO coefficient file
 Reading MOs from coefficient file
 Reading MOs from coefficient file
 An unrestricted hybrid HF-DFT SCF calculation will be
 performed using Pulay DIIS extrapolation
 Exchange:     0.2000 Hartree-Fock + 0.0800 Slater + 0.7200 B88
 Correlation:  0.1900 VWN1RPA + 0.8100 LYP
 Using SG-1 standard quadrature grid
[...]
    7   -1104.5721915025      2.20E-08
    8   -1104.5721915024      1.05E-08
    9   -1104.5721915018      4.48E-09 Convergence criterion met
 ---------------------------------------
 <S^2> = 0.7673
 SCF time:  CPU 5.78 s  wall 5.54 s
 SCF   energy in the final basis set = -1104.5721915018
 Total energy in the final basis set = -1104.5721915018
 
 --------------------------------------------------------------
 
                    Orbital Energies (a.u.)
 --------------------------------------------------------------
 
 Alpha MOs
 -- Occupied --
-89.098 -89.098 -10.432 -10.431 -10.418 -10.418 -10.392 -10.392
-10.380 -10.380  -8.157  -8.157  -6.122  -6.122  -6.118  -6.118
 -6.115  -6.115  -1.086  -1.061  -0.959  -0.934  -0.921  -0.880
 -0.789  -0.759  -0.723  -0.713  -0.702  -0.650  -0.595  -0.593
 -0.590  -0.586  -0.579  -0.555  -0.553  -0.536  -0.519  -0.472
 -0.444  -0.435  -0.391
 -- Virtual --
 -0.249  -0.178  -0.162  -0.152  -0.129  -0.125  -0.115  -0.107
 -0.100  -0.100  -0.092  -0.092  -0.077  -0.075  -0.066  -0.052
 -0.052  -0.041  -0.037  -0.028  -0.019  -0.017  -0.011  -0.010
 -0.009   0.005   0.012   0.013   0.016   0.021   0.024   0.024
  0.030   0.034   0.037   0.040   0.043   0.047   0.054   0.061
  0.069   0.076   0.079   0.082   0.088   0.100   0.102   0.108
  0.111   0.123   0.123   0.140   0.144   0.153   0.167   0.176
  0.185   0.193   0.211   0.216   0.224   0.240   0.242   0.244
  0.300   0.322   0.352   0.357   0.382   0.399   0.416   0.436
  0.451   0.472   0.474   0.475   0.482   0.486   0.508   0.530
  0.546   0.554   0.557   0.569   0.576   0.578   0.612   0.616
  0.643   0.648   0.652   0.675   0.699   0.752   0.769   0.779
  0.784   0.787   0.803   0.819   0.821   0.833   0.839   0.850
  0.864   0.877   0.915   0.934   0.937   0.963   0.981   1.010
  1.017   1.020   1.058   1.081   1.094   1.152   1.162   1.165
  1.172   1.179   1.186   1.291   1.302   1.314   1.375   1.444
  1.481   1.509   1.533   1.645   1.673   1.676   1.732   1.736
  1.751   1.779   1.786   1.844   1.872   1.880   1.888   1.944
  1.980   2.008   2.010   2.027   2.067   2.074   2.159   2.193
  2.198   2.252   2.269   2.270   2.299   2.322   2.327   2.353
  2.366   2.370   2.407   2.430   2.504   2.517   2.543   2.581
  2.687   2.699   2.757   2.762   2.971   3.035   3.105   3.116
  3.223   3.248   3.550   3.570   3.798   3.811   4.047   4.095
  4.136   4.142   4.229   4.344   4.486   4.536
 
 Beta MOs
 -- Occupied --
-89.099 -89.099 -10.430 -10.429 -10.414 -10.414 -10.390 -10.390
-10.380 -10.380  -8.158  -8.158  -6.122  -6.122  -6.118  -6.118
 -6.115  -6.115  -1.080  -1.055  -0.952  -0.932  -0.919  -0.870
 -0.784  -0.755  -0.719  -0.710  -0.700  -0.647  -0.594  -0.587
 -0.584  -0.579  -0.577  -0.551  -0.539  -0.534  -0.519  -0.445
 -0.439  -0.432
 -- Virtual --
 -0.326  -0.227  -0.161  -0.160  -0.150  -0.125  -0.115  -0.113
 -0.100  -0.100  -0.094  -0.091  -0.091  -0.077  -0.074  -0.065
 -0.051  -0.050  -0.040  -0.036  -0.027  -0.017  -0.016  -0.010
 -0.009  -0.009   0.006   0.012   0.014   0.017   0.022   0.024
  0.025   0.032   0.034   0.038   0.043   0.043   0.048   0.055
  0.063   0.071   0.078   0.081   0.084   0.091   0.101   0.103
  0.108   0.113   0.123   0.125   0.140   0.145   0.154   0.167
  0.178   0.187   0.194   0.212   0.218   0.224   0.240   0.245
  0.247   0.301   0.323   0.352   0.357   0.384   0.400   0.418
  0.438   0.452   0.474   0.482   0.483   0.490   0.496   0.509
  0.532   0.551   0.554   0.558   0.578   0.579   0.585   0.613
  0.618   0.649   0.653   0.656   0.681   0.700   0.754   0.775
  0.780   0.789   0.789   0.806   0.820   0.824   0.834   0.842
  0.851   0.867   0.879   0.917   0.935   0.939   0.964   0.986
  1.014   1.022   1.025   1.060   1.090   1.096   1.153   1.169
  1.169   1.180   1.181   1.196   1.300   1.304   1.318   1.379
  1.447   1.493   1.523   1.545   1.651   1.677   1.681   1.733
  1.738   1.758   1.783   1.788   1.850   1.875   1.885   1.898
  1.948   1.990   2.018   2.019   2.031   2.079   2.081   2.165
  2.197   2.201   2.253   2.276   2.277   2.300   2.326   2.334
  2.354   2.373   2.373   2.412   2.434   2.506   2.522   2.548
  2.583   2.690   2.704   2.758   2.764   2.972   3.036   3.106
  3.116   3.224   3.249   3.551   3.572   3.798   3.811   4.053
  4.102   4.139   4.145   4.236   4.351   4.490   4.540
 --------------------------------------------------------------
 
          Ground-State Mulliken Net Atomic Charges

     Atom                 Charge (a.u.)    Spin (a.u.)
  --------------------------------------------------------
      1 S                    -0.041848      -0.048130
      2 C                     0.122123       0.330672
      3 H                     0.259469      -0.016244
      4 C                    -0.361668      -0.035293
      5 H                     0.176585       0.000608
      6 C                     0.475732       0.143805
      7 H                     0.153248      -0.010122
      8 C                    -0.283656       0.134702
      9 C                    -0.283626       0.134703
     10 C                     0.475723       0.143805
     11 H                     0.153251      -0.010122
     12 C                    -0.361653      -0.035292
     13 H                     0.176585       0.000608
     14 C                     0.122120       0.330671
     15 H                     0.259469      -0.016244
     16 S                    -0.041855      -0.048129
  --------------------------------------------------------
  Sum of atomic charges =     1.000000
  Sum of spin   charges =     1.000000

 -----------------------------------------------------------------
                    Cartesian Multipole Moments
 -----------------------------------------------------------------
    Charge (ESU x 10^10)
                 4.8032
    Dipole Moment (Debye)
         X      -3.3097      Y       0.2418      Z     -10.1065
       Tot      10.6374
    Quadrupole Moments (Debye-Ang)
        XX     -30.7206     XY      -0.9694     YY     -73.3475
        XZ      21.8894     YZ      -0.3791     ZZ     -25.3812
    Octopole Moments (Debye-Ang^2)
       XXX      66.6459    XXY      -0.4682    XYY      50.4599
       YYY     -11.0881    XXZ      44.0691    XYZ       2.6600
       YYZ     154.3463    XZZ     -45.3192    YZZ      -1.8502
       ZZZ     249.7059
    Hexadecapole Moments (Debye-Ang^3)
      XXXX   -1122.7906   XXXY       3.1276   XXYY    -315.8314
      XYYY      20.6586   YYYY     -88.2550   XXXZ    -327.6465
      XXYZ      -1.1591   XYYZ    -232.0074   YYYZ      22.4980
      XXZZ    -355.9716   XYZZ      -2.4012   YYZZ    -538.8131
      XZZZ    -177.9317   YZZZ      14.2669   ZZZZ   -2073.7026
 -----------------------------------------------------------------
 Calculating analytic gradient of the SCF energy
 Gradient of SCF Energy
            1           2           3           4           5           6
    1   0.0000425  -0.0000425   0.0000043   0.0000114   0.0000000   0.0000294
    2  -0.0000118  -0.0000058   0.0000025   0.0000343  -0.0000254  -0.0000697
    3  -0.0000066   0.0000007  -0.0000030  -0.0000198   0.0000051   0.0000115
            7           8           9          10          11          12
    1  -0.0000224  -0.0000177   0.0000194  -0.0000338   0.0000247  -0.0000097
    2   0.0000510   0.0000274   0.0000100  -0.0000635   0.0000371   0.0000352
    3  -0.0000080   0.0000151  -0.0000164  -0.0000086   0.0000064   0.0000183
           13          14          15          16
    1  -0.0000015   0.0000429  -0.0000040  -0.0000431
    2  -0.0000286  -0.0000033   0.0000109  -0.0000003
    3  -0.0000039   0.0000000   0.0000027   0.0000066
 Max gradient component =       6.974E-05
 RMS gradient           =       2.540E-05
 Gradient time:  CPU 1.96 s  wall 1.91 s
 Geometry Optimization Parameters
   NAtoms,    NIC,     NZ,  NCons,   NDum,   NFix, NCnnct, MaxDiis
       16     111       0       1       0       0       0       0

 Cartesian Hessian Update
 Hessian Updated using BFGS Update


** CONSTRAINED OPTIMIZATION IN DELOCALIZED INTERNAL COORDINATES **
   Searching for a Minimum

   Optimization Cycle:   6

                       Coordinates (Angstroms)
     ATOM                X               Y               Z
      1  S        -0.0223004768    0.0741803664    0.0148121130
      2  C         1.6910990761    0.0268431467   -0.0120477380
      3  H         2.2422414304    0.0297985754    0.9208668405
      4  C         2.2220296184   -0.0127096824   -1.3035473371
      5  H         3.2862034837   -0.0464214529   -1.5027919208
      6  C         1.2338305043   -0.0047594013   -2.2839280278
      7  H         1.4372783112   -0.0304548489   -3.3485708353
      8  C        -0.0791789631    0.0415760203   -1.7533185938
      9  C        -1.2989015970    0.0608479140   -2.4549517177
     10  C        -2.6119123222    0.1071833824   -1.9243416531
     11  H        -2.8152702777    0.1361940041   -0.8597658943
     12  C        -3.6001590822    0.1133302620   -2.9046871110
     13  H        -4.6643644524    0.1458917534   -2.7054205230
     14  C        -3.0692646073    0.0723397476   -4.1961567662
     15  H        -3.6204424950    0.0680768365   -5.1290454839
     16  S        -1.3558429203    0.0258715866   -4.2230354013
   Point Group: c1    Number of degrees of freedom:    42


   Energy is  -1104.572191502

              Constraints and their Current Values
                                        Value     Constraint
   Dihedral:        6   8   9  10     -180.000      180.000
 Hessian Updated using BFGS Update

 38 Hessian modes will be used to form the next step
  Hessian Eigenvalues:
     0.020421    0.044741    0.045000    0.045002    0.045003    0.045004
     0.045011    0.045020    0.045297    0.146513    0.159138    0.159947
     0.159992    0.160000    0.161368    0.217498    0.221282    0.237838
     0.241620    0.250000    0.268930    0.294441    0.296700    0.309953
     0.312573    0.354783    0.355048    0.355129    0.355434    0.358273
     0.358999    0.380073    0.404882    0.430893    0.456989    0.463583
     0.489186    0.497934

 Minimum Search - Taking Simple RFO Step
 Searching for Lamda that Minimizes Along All modes
 Value Taken    Lamda =   0.00000000
 Step Taken.  Stepsize is  0.002739

                             Maximum     Tolerance    Cnvgd?
         Gradient           0.000043      0.000300     YES
         Displacement       0.001812      0.001200      NO
         Energy change     -0.000000      0.000001     YES

 Final energy is   -1104.57219150177     


 ******************************
 **  OPTIMIZATION CONVERGED  **
 ******************************

                       Coordinates (Angstroms)
     ATOM                X               Y               Z
      1  S        -0.0223004768    0.0741803664    0.0148121130
      2  C         1.6910990761    0.0268431467   -0.0120477380
      3  H         2.2422414304    0.0297985754    0.9208668405
      4  C         2.2220296184   -0.0127096824   -1.3035473371
      5  H         3.2862034837   -0.0464214529   -1.5027919208
      6  C         1.2338305043   -0.0047594013   -2.2839280278
      7  H         1.4372783112   -0.0304548489   -3.3485708353
      8  C        -0.0791789631    0.0415760203   -1.7533185938
      9  C        -1.2989015970    0.0608479140   -2.4549517177
     10  C        -2.6119123222    0.1071833824   -1.9243416531
     11  H        -2.8152702777    0.1361940041   -0.8597658943
     12  C        -3.6001590822    0.1133302620   -2.9046871110
     13  H        -4.6643644524    0.1458917534   -2.7054205230
     14  C        -3.0692646073    0.0723397476   -4.1961567662
     15  H        -3.6204424950    0.0680768365   -5.1290454839
     16  S        -1.3558429203    0.0258715866   -4.2230354013

Z-matrix Print:
$molecule
1 2
S 
C  1 1.714262
H  2 1.083557 1 119.657821
C  2 1.396933 1 113.275172 3 -179.981632 0
H  4 1.083190 2 122.979449 1 -179.994732 0
C  4 1.392030 2 112.405118 1 0.000000 0
H  6 1.084213 4 123.933184 2 179.904766 0
C  6 1.416930 4 113.221104 2 -0.007440 0
C  8 1.407261 6 128.090670 4 -179.943085 0
C  9 1.416929 8 128.090675 6 -180.000000 0
H  10 1.084212 9 122.845676 8 0.065031 0
C  10 1.392030 9 113.221180 8 -179.976100 0
H  12 1.083190 10 124.615449 9 179.957516 0
C  12 1.396933 10 112.405182 9 0.008774 0
H  14 1.083557 12 127.067130 10 179.993170 0
S  14 1.714264 12 113.275001 10 -0.001715 0
$end

 
 --------------------------------------------------------------
 
                    Orbital Energies (a.u.)
 --------------------------------------------------------------
 
 Alpha MOs
 -- Occupied --
-89.098 -89.098 -10.432 -10.431 -10.418 -10.418 -10.392 -10.392
-10.380 -10.380  -8.157  -8.157  -6.122  -6.122  -6.118  -6.118
 -6.115  -6.115  -1.086  -1.061  -0.959  -0.934  -0.921  -0.880
 -0.789  -0.759  -0.723  -0.713  -0.702  -0.650  -0.595  -0.593
 -0.590  -0.586  -0.579  -0.555  -0.553  -0.536  -0.519  -0.472
 -0.444  -0.435  -0.391
 -- Virtual --
 -0.249  -0.178  -0.162  -0.152  -0.129  -0.125  -0.115  -0.107
 -0.100  -0.100  -0.092  -0.092  -0.077  -0.075  -0.066  -0.052
 -0.052  -0.041  -0.037  -0.028  -0.019  -0.017  -0.011  -0.010
 -0.009   0.005   0.012   0.013   0.016   0.021   0.024   0.024
  0.030   0.034   0.037   0.040   0.043   0.047   0.054   0.061
  0.069   0.076   0.079   0.082   0.088   0.100   0.102   0.108
  0.111   0.123   0.123   0.140   0.144   0.153   0.167   0.176
  0.185   0.193   0.211   0.216   0.224   0.240   0.242   0.244
  0.300   0.322   0.352   0.357   0.382   0.399   0.416   0.436
  0.451   0.472   0.474   0.475   0.482   0.486   0.508   0.530
  0.546   0.554   0.557   0.569   0.576   0.578   0.612   0.616
  0.643   0.648   0.652   0.675   0.699   0.752   0.769   0.779
  0.784   0.787   0.803   0.819   0.821   0.833   0.839   0.850
  0.864   0.877   0.915   0.934   0.937   0.963   0.981   1.010
  1.017   1.020   1.058   1.081   1.094   1.152   1.162   1.165
  1.172   1.179   1.186   1.291   1.302   1.314   1.375   1.444
  1.481   1.509   1.533   1.645   1.673   1.676   1.732   1.736
  1.751   1.779   1.786   1.844   1.872   1.880   1.888   1.944
  1.980   2.008   2.010   2.027   2.067   2.074   2.159   2.193
  2.198   2.252   2.269   2.270   2.299   2.322   2.327   2.353
  2.366   2.370   2.407   2.430   2.504   2.517   2.543   2.581
  2.687   2.699   2.757   2.762   2.971   3.035   3.105   3.116
  3.223   3.248   3.550   3.570   3.798   3.811   4.047   4.095
  4.136   4.142   4.229   4.344   4.486   4.536
 
 Beta MOs
 -- Occupied --
-89.099 -89.099 -10.430 -10.429 -10.414 -10.414 -10.390 -10.390
-10.380 -10.380  -8.158  -8.158  -6.122  -6.122  -6.118  -6.118
 -6.115  -6.115  -1.080  -1.055  -0.952  -0.932  -0.919  -0.870
 -0.784  -0.755  -0.719  -0.710  -0.700  -0.647  -0.594  -0.587
 -0.584  -0.579  -0.577  -0.551  -0.539  -0.534  -0.519  -0.445
 -0.439  -0.432
 -- Virtual --
 -0.326  -0.227  -0.161  -0.160  -0.150  -0.125  -0.115  -0.113
 -0.100  -0.100  -0.094  -0.091  -0.091  -0.077  -0.074  -0.065
 -0.051  -0.050  -0.040  -0.036  -0.027  -0.017  -0.016  -0.010
 -0.009  -0.009   0.006   0.012   0.014   0.017   0.022   0.024
  0.025   0.032   0.034   0.038   0.043   0.043   0.048   0.055
  0.063   0.071   0.078   0.081   0.084   0.091   0.101   0.103
  0.108   0.113   0.123   0.125   0.140   0.145   0.154   0.167
  0.178   0.187   0.194   0.212   0.218   0.224   0.240   0.245
  0.247   0.301   0.323   0.352   0.357   0.384   0.400   0.418
  0.438   0.452   0.474   0.482   0.483   0.490   0.496   0.509
  0.532   0.551   0.554   0.558   0.578   0.579   0.585   0.613
  0.618   0.649   0.653   0.656   0.681   0.700   0.754   0.775
  0.780   0.789   0.789   0.806   0.820   0.824   0.834   0.842
  0.851   0.867   0.879   0.917   0.935   0.939   0.964   0.986
  1.014   1.022   1.025   1.060   1.090   1.096   1.153   1.169
  1.169   1.180   1.181   1.196   1.300   1.304   1.318   1.379
  1.447   1.493   1.523   1.545   1.651   1.677   1.681   1.733
  1.738   1.758   1.783   1.788   1.850   1.875   1.885   1.898
  1.948   1.990   2.018   2.019   2.031   2.079   2.081   2.165
  2.197   2.201   2.253   2.276   2.277   2.300   2.326   2.334
  2.354   2.373   2.373   2.412   2.434   2.506   2.522   2.548
  2.583   2.690   2.704   2.758   2.764   2.972   3.036   3.106
  3.116   3.224   3.249   3.551   3.572   3.798   3.811   4.053
  4.102   4.139   4.145   4.236   4.351   4.490   4.540
 --------------------------------------------------------------
 
          Ground-State Mulliken Net Atomic Charges

     Atom                 Charge (a.u.)    Spin (a.u.)
  --------------------------------------------------------
      1 S                    -0.041848      -0.048130
      2 C                     0.122123       0.330672
      3 H                     0.259469      -0.016244
      4 C                    -0.361668      -0.035293
      5 H                     0.176585       0.000608
      6 C                     0.475732       0.143805
      7 H                     0.153248      -0.010122
      8 C                    -0.283656       0.134702
      9 C                    -0.283626       0.134703
     10 C                     0.475723       0.143805
     11 H                     0.153251      -0.010122
     12 C                    -0.361653      -0.035292
     13 H                     0.176585       0.000608
     14 C                     0.122120       0.330671
     15 H                     0.259469      -0.016244
     16 S                    -0.041855      -0.048129
  --------------------------------------------------------
  Sum of atomic charges =     1.000000
  Sum of spin   charges =     1.000000

 -----------------------------------------------------------------
                    Cartesian Multipole Moments
 -----------------------------------------------------------------
    Charge (ESU x 10^10)
                 4.8032
    Dipole Moment (Debye)
         X      -3.3097      Y       0.2418      Z     -10.1065
       Tot      10.6374
    Quadrupole Moments (Debye-Ang)
        XX     -30.7206     XY      -0.9694     YY     -73.3475
        XZ      21.8894     YZ      -0.3791     ZZ     -25.3812
    Octopole Moments (Debye-Ang^2)
       XXX      66.6459    XXY      -0.4682    XYY      50.4599
       YYY     -11.0881    XXZ      44.0691    XYZ       2.6600
       YYZ     154.3463    XZZ     -45.3192    YZZ      -1.8502
       ZZZ     249.7059
    Hexadecapole Moments (Debye-Ang^3)
      XXXX   -1122.7906   XXXY       3.1276   XXYY    -315.8314
      XYYY      20.6586   YYYY     -88.2550   XXXZ    -327.6465
      XXYZ      -1.1591   XYYZ    -232.0074   YYYZ      22.4980
      XXZZ    -355.9716   XYZZ      -2.4012   YYZZ    -538.8131
      XZZZ    -177.9317   YZZZ      14.2669   ZZZZ   -2073.7026
 -----------------------------------------------------------------
Archival summary:
1\1\nid00811\OPT\ProcedureUnspecified\BasisUnspecified\286(1+,2)\bwood\WedMay3102:26:532017WedMay3102:26:532017\0\\#,OPT,ProcedureUnspecified,BasisUnspecified,\\1,2\S\C,1,1.71426\H,2,1.08356,1,119.658\C,2,1.39693,1,113.275,3,-179.982,0\H,4,1.08319,2,122.979,1,-179.995,0\C,4,1.39203,2,112.405,1,0,0\H,6,1.08421,4,123.933,2,179.905,0\C,6,1.41693,4,113.221,2,-0.00744038,0\C,8,1.40726,6,128.091,4,-179.943,0\C,9,1.41693,8,128.091,6,-180,0\H,10,1.08421,9,122.846,8,0.0650313,0\C,10,1.39203,9,113.221,8,-179.976,0\H,12,1.08319,10,124.615,9,179.958,0\C,12,1.39693,10,112.405,9,0.00877369,0\H,14,1.08356,12,127.067,10,179.993,0\S,14,1.71426,12,113.275,10,-0.00171497,0\\\@

 Total job time:  63.35s(wall), 63.10s(cpu) 
 Wed May 31 02:26:53 2017

        *************************************************************
        *                                                           *
        *  Thank you very much for using Q-Chem.  Have a nice day.  *
        *                                                           *
        *************************************************************


0 sent ACK to 0 
now end server 0 ... 
