srun -N 1 --ntasks-per-node 1 --cpus-per-task 64 --cpu_bind=cores --nodelist nid01582 /global/project/projectdirs/jcesr/qchem/qc44/cnl_qc441/dist/exe/qcprog.cori.haswell.exe .pt_mp2_hole_-140.0.in.60758.qcin.1 /dev/shm/eg_qchem/qchem60758/
Process 0 of 1 is on nid01582 - thread support 0
initial socket setup ...start
initial socket setup ...done 
now start server 0 ... 
nid01582 10.128.6
Q-Chem Developer Version! Running on 10.128.6.*
                  Welcome to Q-Chem
     A Quantum Leap Into The Future Of Chemistry


 Q-Chem 4.4, Q-Chem, Inc., Pleasanton, CA (2016)

 Y. Shao,  Z. Gan,  E. Epifanovsky,  A. T. B. Gilbert,  M. Wormit,  
 J. Kussmann,  A. W. Lange,  A. Behn,  J. Deng,  X. Feng,  D. Ghosh,  
 M. Goldey,  P. R. Horn,  L. D. Jacobson,  I. Kaliman,  F.Rob,  
 R. Z. Khaliullin,  T. Kus,  A. Landau,  J. Liu,  E. I. Proynov,  Y. M. Rhee,  
 R. M. Richard,  M. A. Rohrdanz,  R. P. Steele,  E. J. Sundstrom,  
 H. L. Woodcock III,  P. M. Zimmerman,  D. Zuev,  B. Albrecht,  E. Alguire,  
 B. Austin,  S. A. Baeppler,  G. J. O. Beran,  Y. A. Bernard,  E. Berquist,  
 K. Brandhorst,  K. B. Bravaya,  S. T. Brown,  D. Casanova,  C.-M. Chang,  
 Y. Chen,  S. H. Chien,  K. D. Closser,  M. P. Coons,  D. L. Crittenden,  
 S. Dasgupta,  M. Diedenhofen,  R. A. DiStasio Jr.,  H. Do,  A. D. Dutoi,  
 R. G. Edgar,  P.-T. Fang,  S. Fatehi,  Q. Feng,  L. Fusti-Molnar,  
 A. Ghysels,  A. Golubeva-Zadorozhnaya,  J. Gomes,  A. Gunina,  
 M. W. D. Hanson-Heine,  P. H. P. Harbach,  A. W. Hauser,  E. G. Hohenstein,  
 Z. C. Holden,  K. Hui,  T.-C. Jagau,  H. Ji,  B. Kaduk,  K. Khistyaev,  
 Jaehoon Kim,  Jihan Kim,  R. A. King,  P. Klunzinger,  D. Kosenkov,  
 T. Kowalczyk,  C. M. Krauter,  A. Kunitsa,  K. U. Lao,  A. Laurent,  
 K. V. Lawler,  D. Lefrancois,  S. Lehtola,  S. V. Levchenko,  C. Y. Lin,  
 Y.-S. Lin,  F. Liu,  E. Livshits,  R. C. Lochan,  A. Luenser,  P. Manohar,  
 S. F. Manzer,  S.-P. Mao,  Y. Mao,  N. Mardirossian,  A. V. Marenich,  
 L. A. Martinez-Martinez,  S. A. Maurer,  N. J. Mayhall,  J.-M. Mewes,  
 A. F. Morrison,  K. Nanda,  C. M. Oana,  R. Olivares-Amaya,  D. P. O'Neill,  
 J. A. Parkhill,  T. M. Perrine,  R. Peverati,  P. A. Pieniazek,  F. Plasser,  
 A. Prociuk,  D. R. Rehn,  E. Rosta,  N. J. Russ,  N. Sergueev,  
 S. M. Sharada,  S. Sharma,  D. W. Small,  A. Sodt,  T. Stauch,  T. Stein,  
 D. Stuck,  Y.-C. Su,  A. J. W. Thom,  T. Tsuchimochi,  L. Vogt,  O. Vydrov,  
 T. Wang,  M. A. Watson,  J. Wenzel,  A. White,  C. F. Williams,  
 V. Vanovschi,  S. Yeganeh,  S. R. Yost,  Z.-Q. You,  I. Y. Zhang,  X. Zhang,  
 Y. Zhao,  B. R. Brooks,  G. K. L. Chan,  D. M. Chipman,  C. J. Cramer,  
 W. A. Goddard III,  M. S. Gordon,  W. J. Hehre,  A. Klamt,  
 H. F. Schaefer III,  M. W. Schmidt,  C. D. Sherrill,  D. G. Truhlar,  
 A. Warshel,  X. Xu,  A. Aspuru-Guzik,  R. Baer,  A. T. Bell,  N. A. Besley,  
 J.-D. Chai,  A. Dreuw,  B. D. Dunietz,  T. R. Furlani,  S. R. Gwaltney,  
 C.-P. Hsu,  Y. Jung,  J. Kong,  D. S. Lambrecht,  W. Liang,  C. Ochsenfeld,  
 V. A. Rassolov,  L. V. Slipchenko,  J. E. Subotnik,  T. Van Voorhis,  
 J. M. Herbert,  A. I. Krylov,  P. M. W. Gill,  M. Head-Gordon

 Contributors to earlier versions of Q-Chem not listed above: 
 R. D. Adamson,  J. Baker,  E. F. C. Byrd,  A. K. Chakraborty,  C.-L. Cheng,  
 H. Dachsel,  R. J. Doerksen,  G. Hawkins,  A. Heyden,  S. Hirata,  
 G. Kedziora,  F. J. Keil,  C. Kelley,  P. P. Korambath,  W. Kurlancheek,  
 A. M. Lee,  M. S. Lee,  D. Liotard,  I. Lotan,  P. E. Maslen,  N. Nair,  
 D. Neuhauser,  R. Olson,  B. Peters,  J. Ritchie,  N. E. Schultz,  
 N. Shenvi,  A. C. Simmonett,  K. S. Thanthiriwatte,  Q. Wu,  W. Zhang

 Please cite Q-Chem as follows:
 Y. Shao et al., Mol. Phys. 113, 184-215 (2015)
 DOI: 10.1080/00268976.2014.952696

 Q-Chem 4.4.1 for Intel X86 EM64T Linux

 Parts of Q-Chem use Armadillo 5.200.1 (Boston Tea Smuggler).
 http://arma.sourceforge.net/

 Q-Chem begins on Tue Mar  7 05:06:25 2017  

Host: nid01545
0

     Scratch files written to /dev/shm/eg_qchem/qchem60758//
 Parallel job on  1  processors

Checking the input file for inconsistencies... 	...done.

--------------------------------------------------------------
User input:
--------------------------------------------------------------
$molecule
 1  2
 S           1.81042700       -1.22909900       -0.13996800
 C           3.10211600       -0.18861200       -0.13982200
 C           2.74845300        1.15163900       -0.14006900
 C           1.39169900        1.31613900       -0.14029100
 C           0.68906700        0.11310500       -0.14015500
 H           0.90454800        2.27578700       -0.14040700
 C          -0.68906700       -0.11310500       -0.14015500
 S          -1.75333279        0.88126523       -1.10841429
 C          -1.43238723       -1.06825504        0.54987832
 C          -3.07603863        0.02974144       -0.58264801
 C          -2.77467510       -0.99188671        0.30437299
 H          -3.52258893       -1.63155725        0.73290981
 H           4.10439600       -0.57731800       -0.13934700
 H           3.47107900        1.94537000       -0.13983300
 H          -4.05766623        0.29262728       -0.93329895
 H          -0.98412690       -1.79097031        1.20941279
$end


$rem
         jobtype = opt
        exchange = hf
           basis = cc-pvtz
  max_scf_cycles = 100
      mem_static = 6200
       mem_total = 62000
          method = mp2
$end


$opt
CONSTRAINT
tors 4 5 7 9 -140.0
ENDCONSTRAINT
$end

--------------------------------------------------------------
 Atom  10: ( -3.0951062351,  0.1538158508, -0.1127115048)
         ->( -3.0951062383,  0.1538158549, -0.1127115019)
 Atom  14: (  3.4880334960,  1.8575500648,  0.5873086257)
         ->(  3.4880334958,  1.8575500692,  0.5873086299)
 ----------------------------------------------------------------
             Standard Nuclear Orientation (Angstroms)
    I     Atom           X                Y                Z
 ----------------------------------------------------------------
    1      S       1.7934658323    -1.1430037679    -0.3925564905
    2      C       3.0951062383    -0.1538158549    -0.1127115019
    3      C       2.7573977714     1.1050119106     0.3591528532
    4      C       1.4046485752     1.2494980186     0.4896714059
    5      C       0.6892885407     0.1117469486     0.1225677766
    6      H       0.9292910754     2.1490284859     0.8405568287
    7      C      -0.6892885384    -0.1117469507     0.1225677768
    8      S      -1.7934658344     1.1430037691    -0.3925564888
    9      C      -1.4046485754    -1.2494980163     0.4896714083
   10      C      -3.0951062383     0.1538158549    -0.1127115019
   11      C      -2.7573977710    -1.1050119096     0.3591528522
   12      H      -3.4880334958    -1.8575500692     0.5873086299
   13      H       4.0913719169    -0.5121346653    -0.2990448219
   14      H       3.4880334958     1.8575500692     0.5873086299
   15      H      -4.0913719179     0.5121346691    -0.2990448231
   16      H      -0.9292910760    -2.1490284877     0.8405568323
 ----------------------------------------------------------------
 Molecular Point Group                 C2    NOp =  2
 Largest Abelian Subgroup              C2    NOp =  2
 Nuclear Repulsion Energy =   639.2524575477 hartrees
 There are       43 alpha and       42 beta electrons
 Requested basis set is cc-pVTZ
 There are 140 shells and 392 basis functions

 Total QAlloc Memory Limit  62000 MB
 Mega-Array Size      6061 MB
 MEM_STATIC part      6200 MB
 A cutoff of  1.0D-11 yielded   8059 shell pairs
 There are     62707 function pairs (     81720 Cartesian)
 
 -------------------------------------------------------
 OpenMP Integral Computing Module                       
 Release: version 1.0, May 2013, Q-Chem Inc. Pittsburgh 
 -------------------------------------------------------
 Integral Job Info:
 Integral job number is                      11
 Integral operator is                         1
 short-range coefficients                     0
 long-range coefficients              100000000
 Omega coefficients                           0
 if combine SR and LR in K                    0
 Integral screening is                        0
 Integral computing path is                   2
 max size of driver memory is            800000
 size of driver memory is                776718
 size of scratch memory is             26248924
 max col of scratch BK array              10000
 max len of scratch array in speh3          662
 max len of scratch index in speh4           32
 max int batch size is                      520
 min int batch size is                       52
 fixed nKL is                                52
 max L of basis functions is                  3
 order of int derivative is                   0
 number of shells is                        140
 number of basis is                         448
 number of cartesian basis is               448
 number of contracted shell pairs          8059
 number of primitive shell pairs          28693
 maxK2 (contraction) of shell pair          121
 max number of K2 of shell pair               1
 max number of CS2 of shell pair           1056
 max number of PS2 of shell pair           3094
 mem total for path MDJ                  223748
 -------------------------------------------------------
 Smallest overlap matrix eigenvalue = 7.45E-05

 Scale SEOQF with 1.000000e-01/1.000000e-01/1.000000e+00

 Standard Electronic Orientation quadrupole field applied
 Nucleus-field energy     =     0.0000000080 hartrees
 Guess from superposition of atomic densities
 Warning:  Energy on first SCF cycle will be non-variational
 An unrestricted Hartree-Fock SCF calculation will be
 performed using Pulay DIIS extrapolation
 SCF converges when DIIS error is below 1.0E-08
 using 16 threads for integral computing 
 ---------------------------------------
  Cycle       Energy         DIIS Error
 ---------------------------------------
    1   -1106.1973028540      3.04E-02
    2   -1086.8254972333      2.37E-02
    3   -1091.2045857433      1.56E-02
    4   -1096.0507420708      9.08E-03
    5   -1101.0494796790      3.37E-03
    6   -1101.3203205554      1.06E-03
    7   -1101.3462230417      2.63E-04
    8   -1101.3496384781      1.04E-04
    9   -1101.3515202472      4.57E-05
   10   -1101.3527193679      3.34E-05
   11   -1101.3537711795      2.53E-05
   12   -1101.3548177625      1.75E-05
   13   -1101.3555705150      1.08E-05
   14   -1101.3558084438      6.96E-06
   15   -1101.3558869571      3.89E-06
   16   -1101.3559051242      1.96E-06
   17   -1101.3559128799      9.31E-07
   18   -1101.3559138720      3.51E-07
   19   -1101.3559140523      1.63E-07
   20   -1101.3559140719      7.92E-08
   21   -1101.3559140828      2.93E-08
   22   -1101.3559140837      1.21E-08
   23   -1101.3559140846      7.34E-09 Convergence criterion met
 ---------------------------------------
 <S^2> = 1.0329
 SCF time:  CPU 1081.62 s  wall 67.67 s
 SCF   energy in the final basis set = -1101.3559140846
 Total energy in the final basis set = -1101.3559140846
 
 Components of the MP2 correlation energy:
        aaaa  correlation energy =        -0.2339712420 au
        abab  correlation energy =        -1.3008330955 au
        bbbb  correlation energy =        -0.2112939352 au
        non-Brillouin singles    =        -0.0000000000 au

 Total  MP2   correlation energy =        -1.7460982728 au
        MP2         total energy =     -1103.1020123573 au

  Entering Z-vector solver.
   1         0           1      0.000537    0.000537
   2         0           1      0.000479    0.000479
   3         0           1      0.000320    0.000320
   4         0           1      0.000253    0.000253
   5         0           1      0.000105    0.000105
   6         0           1      0.000051    0.000051
   7         0           1      0.000029    0.000029
   8         0           1      0.000019    0.000019
   9         0           1      0.000008    0.000008
  10         0           1      0.000004    0.000004
  11         0           1      0.000002    0.000002
  12         1           0      0.000000    0.000000    Roots Converged
 Warning:  Cannot save MP2 spin density
 
 --------------------------------------------------------------
             Orbital Energies (a.u.) and Symmetries
 --------------------------------------------------------------
 Warning : Irrep of orbital(   1) could not be determined
 Warning : Irrep of orbital(   2) could not be determined
 
 Alpha MOs, Unrestricted
 -- Occupied --                  
-92.161 -92.161 -11.475 -11.474 -11.452 -11.452 -11.433 -11.433
  0 xxx   0 xxx   1 A     1 B     2 B     2 A     3 B     3 A                  
-11.404 -11.404  -9.163  -9.163  -6.843  -6.843  -6.843  -6.843
  4 B     4 A     5 A     5 B     6 B     6 A     7 A     7 B                  
 -6.841  -6.841  -1.394  -1.364  -1.232  -1.196  -1.179  -1.129
  8 B     8 A     9 A     9 B    10 A    10 B    11 A    11 B                  
 -1.001  -0.960  -0.927  -0.905  -0.888  -0.823  -0.752  -0.750
 12 A    12 B    13 A    13 B    14 A    14 B    15 A    15 B                  
 -0.748  -0.738  -0.734  -0.709  -0.697  -0.664  -0.647  -0.572
 16 A    17 A    16 B    17 B    18 A    18 B    19 A    20 A                  
 -0.538  -0.521  -0.482
 19 B    21 A    20 B                                                          
 -- Virtual --                   
 -0.117  -0.039  -0.002   0.001   0.020   0.025   0.034   0.046
 22 A    21 B    22 B    23 A    24 A    23 B    25 A    24 B                  
  0.051   0.054   0.073   0.076   0.105   0.119   0.161   0.176
 25 B    26 A    27 A    26 B    27 B    28 A    28 B    29 A                  
  0.194   0.200   0.211   0.212   0.239   0.241   0.263   0.271
 30 A    29 B    31 A    30 B    32 A    31 B    32 B    33 A                  
  0.280   0.284   0.290   0.301   0.315   0.322   0.346   0.353
 34 A    33 B    34 B    35 A    36 A    35 B    37 A    36 B                  
  0.359   0.360   0.370   0.376   0.383   0.384   0.397   0.400
 38 A    37 B    38 B    39 A    40 A    39 B    40 B    41 B                  
  0.416   0.433   0.437   0.440   0.454   0.461   0.466   0.467
 41 A    42 B    42 A    43 A    43 B    44 A    44 B    45 B                  
  0.469   0.491   0.497   0.502   0.513   0.514   0.531   0.540
 45 A    46 A    47 A    46 B    47 B    48 A    48 B    49 A                  
  0.604   0.612   0.617   0.621   0.649   0.666   0.667   0.671
 49 B    50 A    51 A    50 B    51 B    52 A    52 B    53 B                  
  0.695   0.704   0.733   0.737   0.739   0.752   0.788   0.789
 54 B    53 A    54 A    55 B    55 A    56 A    56 B    57 A                  
  0.816   0.834   0.834   0.858   0.860   0.865   0.904   0.908
 58 A    59 A    57 B    58 B    60 A    59 B    61 A    60 B                  
  0.924   0.935   0.943   0.947   0.980   0.984   1.005   1.005
 61 B    62 A    63 A    62 B    64 A    63 B    65 A    64 B                  
  1.015   1.035   1.043   1.056   1.075   1.091   1.093   1.122
 65 B    66 A    66 B    67 A    67 B    68 B    68 A    69 A                  
  1.132   1.150   1.169   1.192   1.224   1.227   1.250   1.271
 69 B    70 A    71 A    70 B    71 B    72 A    72 B    73 A                  
  1.283   1.287   1.323   1.328   1.333   1.340   1.345   1.369
 74 A    73 B    74 B    75 A    75 B    76 B    76 A    77 B                  
  1.376   1.380   1.397   1.413   1.429   1.439   1.452   1.474
 77 A    78 A    78 B    79 B    79 A    80 A    80 B    81 A                  
  1.510   1.519   1.547   1.559   1.573   1.599   1.601   1.672
 81 B    82 B    82 A    83 B    83 A    84 A    84 B    85 A                  
  1.683   1.687   1.689   1.725   1.727   1.753   1.763   1.770
 85 B    86 A    86 B    87 B    87 A    88 B    88 A    89 B                  
  1.775   1.814   1.869   1.895   1.897   1.925   1.946   1.993
 89 A    90 B    90 A    91 B    91 A    92 A    92 B    93 A                  
  2.016   2.018   2.033   2.037   2.064   2.081   2.092   2.109
 94 A    93 B    94 B    95 B    95 A    96 A    96 B    97 A                  
  2.117   2.135   2.147   2.205   2.227   2.259   2.269   2.281
 97 B    98 B    98 A    99 B    99 A   100 A   100 B   101 A                  
  2.313   2.319   2.342   2.345   2.348   2.384   2.400   2.412
101 B   102 A   103 A   102 B   103 B   104 B   104 A   105 A                  
  2.446   2.497   2.516   2.517   2.540   2.547   2.569   2.579
105 B   106 B   106 A   107 B   108 B   107 A   108 A   109 B                  
  2.581   2.596   2.600   2.616   2.624   2.665   2.700   2.715
109 A   110 B   110 A   111 B   111 A   112 A   112 B   113 A                  
  2.735   2.755   2.771   2.775   2.820   2.826   2.831   2.848
113 B   114 B   114 A   115 A   115 B   116 B   116 A   117 B                  
  2.850   2.879   2.899   2.955   2.975   2.984   2.998   3.005
117 A   118 B   118 A   119 A   120 A   119 B   121 A   120 B                  
  3.041   3.042   3.059   3.068   3.076   3.082   3.096   3.112
122 A   121 B   123 A   122 B   124 A   123 B   125 A   126 A                  
  3.116   3.121   3.151   3.152   3.158   3.171   3.209   3.215
124 B   125 B   127 A   126 B   128 A   127 B   128 B   129 B                  
  3.218   3.238   3.252   3.260   3.264   3.278   3.290   3.309
129 A   130 A   130 B   131 A   131 B   132 A   133 A   132 B                  
  3.314   3.326   3.333   3.338   3.348   3.353   3.354   3.364
134 A   133 B   135 A   134 B   136 A   135 B   137 A   136 B                  
  3.378   3.379   3.400   3.407   3.418   3.445   3.467   3.493
137 B   138 A   139 A   140 A   138 B   141 A   139 B   140 B                  
  3.526   3.530   3.539   3.563   3.574   3.600   3.615   3.620
141 B   142 A   142 B   143 A   144 A   143 B   144 B   145 A                  
  3.653   3.666   3.684   3.700   3.733   3.737   3.758   3.763
145 B   146 A   146 B   147 A   148 A   147 B   148 B   149 A                  
  3.804   3.820   3.829   3.835   3.843   3.869   3.879   3.884
150 A   149 B   150 B   151 A   151 B   152 A   152 B   153 A                  
  3.916   3.952   3.967   3.976   3.982   4.008   4.022   4.024
153 B   154 A   154 B   155 A   155 B   156 A   156 B   157 A                  
  4.044   4.053   4.065   4.104   4.113   4.124   4.132   4.149
157 B   158 A   159 A   160 A   158 B   159 B   160 B   161 A                  
  4.177   4.184   4.210   4.254   4.277   4.312   4.369   4.370
162 A   161 B   163 A   162 B   163 B   164 A   164 B   165 A                  
  4.381   4.399   4.448   4.468   4.470   4.490   4.507   4.537
165 B   166 A   166 B   167 A   167 B   168 A   169 A   168 B                  
  4.558   4.565   4.579   4.615   4.616   4.666   4.681   4.723
169 B   170 B   170 A   171 B   171 A   172 A   172 B   173 B                  
  4.733   4.804   4.813   4.840   4.859   4.884   4.892   4.913
173 A   174 A   174 B   175 B   175 A   176 B   176 A   177 A                  
  4.918   4.963   5.032   5.080   5.089   5.121   5.151   5.229
177 B   178 A   178 B   179 A   179 B   180 B   180 A   181 A                  
  5.239   5.264   5.264   5.335   5.386   5.424   5.473   5.513
181 B   182 B   182 A   183 A   183 B   184 A   185 A   184 B                  
  5.597   5.784   5.823   5.916   5.926   6.001   6.032   6.082
185 B   186 A   186 B   187 B   187 A   188 A   188 B   189 B                  
  6.127   6.371   6.405   6.591   6.594   9.323  10.849  11.753
189 A   190 A   190 B   191 B   191 A   192 A   192 B   193 A                  
 12.612  13.250  13.544  14.686  14.734
193 B   194 A   194 B   195 B   195 A                                          
 Warning : Irrep of orbital(   1) could not be determined
 Warning : Irrep of orbital(   2) could not be determined
 
 Beta MOs, Unrestricted
 -- Occupied --                  
-92.162 -92.162 -11.475 -11.474 -11.440 -11.440 -11.426 -11.426
  0 xxx   0 xxx   1 A     1 B     2 B     2 A     3 A     3 B                  
-11.410 -11.410  -9.164  -9.164  -6.845  -6.845  -6.844  -6.844
  4 B     4 A     5 A     5 B     6 B     6 A     7 A     7 B                  
 -6.844  -6.844  -1.383  -1.349  -1.221  -1.187  -1.175  -1.105
  8 A     8 B     9 A     9 B    10 A    10 B    11 A    11 B                  
 -0.992  -0.951  -0.915  -0.901  -0.887  -0.818  -0.746  -0.744
 12 A    12 B    13 A    13 B    14 A    14 B    15 B    15 A                  
 -0.738  -0.729  -0.721  -0.685  -0.666  -0.659  -0.645  -0.536
 16 A    16 B    17 A    18 A    17 B    18 B    19 A    19 B                  
 -0.535  -0.504
 20 A    21 A                                                                  
 -- Virtual --                   
 -0.189  -0.055  -0.011   0.005   0.008   0.022   0.027   0.050
 20 B    22 A    21 B    22 B    23 A    24 A    23 B    24 B                  
  0.052   0.057   0.062   0.075   0.081   0.112   0.121   0.163
 25 A    26 A    25 B    27 A    26 B    27 B    28 A    28 B                  
  0.177   0.198   0.203   0.213   0.214   0.242   0.245   0.269
 29 A    30 A    29 B    31 A    30 B    32 A    31 B    32 B                  
  0.275   0.289   0.290   0.295   0.311   0.315   0.325   0.352
 33 A    34 A    33 B    34 B    35 A    36 A    35 B    37 A                  
  0.357   0.366   0.374   0.378   0.381   0.394   0.398   0.403
 36 B    38 A    37 B    39 A    38 B    40 A    39 B    40 B                  
  0.416   0.421   0.439   0.441   0.456   0.460   0.463   0.470
 41 B    41 A    42 A    42 B    43 A    43 B    44 A    44 B                  
  0.472   0.474   0.498   0.502   0.503   0.516   0.518   0.538
 45 B    45 A    46 A    46 B    47 A    48 A    47 B    48 B                  
  0.544   0.607   0.616   0.620   0.623   0.651   0.668   0.671
 49 A    49 B    50 A    51 A    50 B    51 B    52 A    52 B                  
  0.674   0.699   0.711   0.738   0.740   0.743   0.755   0.790
 53 B    54 B    53 A    54 A    55 B    55 A    56 A    57 A                  
  0.792   0.823   0.836   0.837   0.862   0.863   0.867   0.909
 56 B    58 A    59 A    57 B    60 A    58 B    59 B    61 A                  
  0.913   0.926   0.939   0.949   0.958   0.982   0.985   1.005
 60 B    61 B    62 A    63 A    62 B    64 A    63 B    64 B                  
  1.007   1.021   1.040   1.047   1.058   1.076   1.095   1.097
 65 A    65 B    66 A    66 B    67 A    67 B    68 A    68 B                  
  1.124   1.133   1.155   1.176   1.195   1.232   1.235   1.256
 69 A    69 B    70 A    71 A    70 B    72 A    71 B    72 B                  
  1.277   1.287   1.292   1.325   1.331   1.338   1.347   1.353
 73 A    74 A    73 B    74 B    75 A    75 B    76 B    76 A                  
  1.370   1.377   1.384   1.399   1.416   1.429   1.444   1.456
 77 B    77 A    78 A    78 B    79 B    79 A    80 A    80 B                  
  1.478   1.512   1.522   1.552   1.563   1.577   1.599   1.605
 81 A    81 B    82 B    82 A    83 B    83 A    84 A    84 B                  
  1.671   1.683   1.687   1.692   1.725   1.726   1.755   1.766
 85 A    85 B    86 A    86 B    87 B    87 A    88 B    88 A                  
  1.770   1.777   1.815   1.869   1.895   1.898   1.925   1.948
 89 B    89 A    90 B    90 A    91 B    91 A    92 A    92 B                  
  1.993   2.017   2.018   2.032   2.038   2.068   2.082   2.098
 93 A    94 A    93 B    94 B    95 B    95 A    96 A    96 B                  
  2.122   2.123   2.142   2.150   2.207   2.230   2.267   2.268
 97 A    97 B    98 B    98 A    99 B    99 A   100 B   100 A                  
  2.275   2.315   2.321   2.349   2.355   2.359   2.397   2.405
101 A   101 B   102 A   102 B   103 A   103 B   104 B   104 A                  
  2.422   2.453   2.501   2.517   2.520   2.546   2.547   2.574
105 A   105 B   106 B   106 A   107 B   108 B   107 A   108 A                  
  2.585   2.589   2.603   2.606   2.623   2.629   2.668   2.709
109 B   109 A   110 B   110 A   111 B   111 A   112 A   112 B                  
  2.725   2.739   2.764   2.777   2.781   2.825   2.830   2.834
113 A   113 B   114 B   114 A   115 A   115 B   116 B   116 A                  
  2.856   2.856   2.882   2.904   2.959   2.980   2.996   3.001
117 B   117 A   118 B   118 A   119 A   120 A   119 B   121 A                  
  3.011   3.041   3.047   3.064   3.070   3.081   3.087   3.104
120 B   121 B   122 A   123 A   122 B   124 A   123 B   125 A                  
  3.117   3.121   3.128   3.156   3.160   3.166   3.176   3.212
126 A   124 B   125 B   127 A   126 B   128 A   127 B   128 B                  
  3.218   3.219   3.242   3.256   3.264   3.267   3.282   3.297
129 B   129 A   130 A   130 B   131 A   131 B   132 A   133 A                  
  3.316   3.324   3.336   3.341   3.346   3.353   3.354   3.361
132 B   134 A   133 B   135 A   134 B   136 A   137 A   135 B                  
  3.367   3.381   3.384   3.404   3.415   3.423   3.448   3.470
136 B   137 B   138 A   139 A   140 A   138 B   141 A   139 B                  
  3.498   3.529   3.535   3.542   3.568   3.577   3.603   3.620
140 B   141 B   142 A   142 B   143 A   144 A   143 B   144 B                  
  3.624   3.656   3.669   3.687   3.704   3.738   3.739   3.761
145 A   145 B   146 A   146 B   147 A   148 A   147 B   148 B                  
  3.763   3.807   3.825   3.832   3.837   3.845   3.873   3.882
149 A   150 A   149 B   150 B   151 A   151 B   152 A   152 B                  
  3.888   3.919   3.954   3.971   3.978   3.984   4.009   4.024
153 A   153 B   154 A   154 B   155 A   155 B   156 A   156 B                  
  4.026   4.045   4.055   4.066   4.106   4.114   4.125   4.133
157 A   157 B   158 A   159 A   160 A   158 B   159 B   160 B                  
  4.150   4.179   4.186   4.211   4.256   4.278   4.312   4.371
161 A   162 A   161 B   163 A   162 B   163 B   164 A   164 B                  
  4.371   4.382   4.400   4.451   4.470   4.471   4.493   4.509
165 A   165 B   166 A   166 B   167 B   167 A   168 A   169 A                  
  4.539   4.560   4.567   4.583   4.616   4.617   4.667   4.683
168 B   169 B   170 B   170 A   171 B   171 A   172 A   172 B                  
  4.725   4.735   4.807   4.817   4.841   4.861   4.885   4.893
173 B   173 A   174 A   174 B   175 B   175 A   176 B   176 A                  
  4.915   4.919   4.964   5.033   5.087   5.091   5.126   5.153
177 A   177 B   178 A   178 B   179 A   179 B   180 B   180 A                  
  5.231   5.240   5.265   5.265   5.336   5.387   5.425   5.474
181 A   181 B   182 B   182 A   183 A   183 B   184 A   185 A                  
  5.515   5.598   5.785   5.824   5.917   5.926   6.002   6.032
184 B   185 B   186 A   186 B   187 B   187 A   188 A   188 B                  
  6.082   6.127   6.372   6.406   6.592   6.594   9.325  10.853
189 B   189 A   190 A   190 B   191 B   191 A   192 A   192 B                  
 11.757  12.617  13.254  13.544  14.688  14.736
193 A   193 B   194 A   194 B   195 B   195 A                                  
 --------------------------------------------------------------
 
          Ground-State Mulliken Net Atomic Charges

     Atom                 Charge (a.u.)    Spin (a.u.)
  --------------------------------------------------------
      1 S                     0.267974      -0.024413
      2 C                    -0.114574      -0.030882
      3 C                    -0.159002       0.442086
      4 C                    -0.152965      -0.250408
      5 C                    -0.018314       0.363487
      6 H                     0.211581       0.020919
      7 C                    -0.018315       0.363487
      8 S                     0.267974      -0.024413
      9 C                    -0.152964      -0.250408
     10 C                    -0.114572      -0.030882
     11 C                    -0.159003       0.442086
     12 H                     0.224359      -0.034080
     13 H                     0.240941       0.013292
     14 H                     0.224360      -0.034080
     15 H                     0.240940       0.013292
     16 H                     0.211580       0.020919
  --------------------------------------------------------
  Sum of atomic charges =     1.000000
  Sum of spin   charges =     1.000000

 -----------------------------------------------------------------
                    Cartesian Multipole Moments
 -----------------------------------------------------------------
    Charge (ESU x 10^10)
                 4.8032
    Dipole Moment (Debye)
         X      -0.0000      Y       0.0000      Z       0.2534
       Tot       0.2534
    Quadrupole Moments (Debye-Ang)
        XX     -22.1097     XY       1.8910     YY     -57.7814
        XZ       0.0000     YZ      -0.0000     ZZ     -71.3621
    Octopole Moments (Debye-Ang^2)
       XXX       0.0000    XXY      -0.0000    XYY      -0.0000
       YYY      -0.0000    XXZ      -4.8475    XYZ      11.9836
       YYZ       6.8176    XZZ      -0.0000    YZZ      -0.0000
       ZZZ      -3.9915
    Hexadecapole Moments (Debye-Ang^3)
      XXXX   -1267.1879   XXXY       1.1284   XXYY    -338.3450
      XYYY      19.9957   YYYY    -457.8431   XXXZ       0.0000
      XXYZ       0.0000   XYYZ      -0.0000   YYYZ      -0.0000
      XXZZ    -361.4572   XYZZ      -4.0064   YYZZ    -102.7740
      XZZZ       0.0000   YZZZ      -0.0000   ZZZZ    -143.0911
 -----------------------------------------------------------------
 DrvMan is completing analytic gradient of the MP2 energy
 MP2 relaxed dipole moment
            1
    1  -0.0000000
    2   0.0000000
    3   0.0997139
	Magnitude:	 0.100 au	 0.253 Debye
 MP2 energy read as -1103.102012
 Full Analytical Gradient of MP2 Energy (in au.)
             1             2             3             4             5
    1   -0.00104861    0.00149605   -0.00094265    0.00158418   -0.01091977
    2    0.00035527    0.00115128    0.00124835   -0.00192267   -0.00298889
    3   -0.00632786   -0.00090193   -0.00073728    0.00888508   -0.00127498
             6             7             8             9            10
    1    0.00057298    0.01091977    0.00104861   -0.00158418   -0.00149605
    2    0.00062207    0.00298889   -0.00035527    0.00192268   -0.00115129
    3   -0.00049682   -0.00127498   -0.00632786    0.00888508   -0.00090193
            11            12            13            14            15
    1    0.00094265    0.00013800   -0.00014150   -0.00013800    0.00014150
    2   -0.00124835   -0.00045319   -0.00082283    0.00045319    0.00082283
    3   -0.00073728   -0.00117312    0.00202690   -0.00117312    0.00202690
            16
    1   -0.00057298
    2   -0.00062207
    3   -0.00049682
 Gradient time:  CPU 1.51 s  wall 0.10 s
 Geometry Optimization Parameters
   NAtoms,    NIC,     NZ,  NCons,   NDum,   NFix, NCnnct, MaxDiis
       16     111       0       1       0       0       0       0


** CONSTRAINED OPTIMIZATION IN DELOCALIZED INTERNAL COORDINATES **
   Searching for a Minimum

   Optimization Cycle:   1

                       Coordinates (Angstroms)
     ATOM                X               Y               Z
      1  S         1.7934658334   -1.1430037685   -0.3925564896
      2  C         3.0951062383   -0.1538158549   -0.1127115019
      3  C         2.7573977712    1.1050119101    0.3591528527
      4  C         1.4046485753    1.2494980174    0.4896714071
      5  C         0.6892885396    0.1117469496    0.1225677767
      6  H         0.9292910757    2.1490284868    0.8405568305
      7  C        -0.6892885396   -0.1117469496    0.1225677767
      8  S        -1.7934658334    1.1430037685   -0.3925564896
      9  C        -1.4046485753   -1.2494980174    0.4896714071
     10  C        -3.0951062383    0.1538158549   -0.1127115019
     11  C        -2.7573977712   -1.1050119101    0.3591528527
     12  H        -3.4880334958   -1.8575500692    0.5873086299
     13  H         4.0913719174   -0.5121346672   -0.2990448225
     14  H         3.4880334958    1.8575500692    0.5873086299
     15  H        -4.0913719174    0.5121346672   -0.2990448225
     16  H        -0.9292910757   -2.1490284868    0.8405568305
   Point Group: c2    Number of degrees of freedom:    22


   Energy is  -1103.102012357

              Constraints and their Current Values
                                        Value     Constraint
   Dihedral:        4   5   7   9     -140.000     -140.000

 Attempting to Generate Delocalized Internal Coordinates

 21 Hessian modes will be used to form the next step
  Hessian Eigenvalues:
     0.045000    0.045000    0.045000    0.045000    0.045000    0.045000
     0.160000    0.160000    0.160000    0.221335    0.237679    0.250000
     0.299411    0.364554    0.366034    0.368031    0.392996    0.445237
     0.461927    0.467905    0.501257

 Minimum Search - Taking Simple RFO Step
 Searching for Lamda that Minimizes Along All modes
 Value Taken    Lamda =  -0.00259424
 Step Taken.  Stepsize is  0.222724

                             Maximum     Tolerance    Cnvgd?
         Gradient           0.006403      0.000300      NO
         Displacement       0.107414      0.001200      NO
         Energy change     *********      0.000001      NO


 New Cartesian Coordinates Obtained by Inverse Iteration

 Displacement from previous Coordinates is:  0.390839
 ----------------------------------------------------------------
             Standard Nuclear Orientation (Angstroms)
    I     Atom           X                Y                Z
 ----------------------------------------------------------------
    1      S       1.8097857023    -1.1601335417    -0.3465318113
    2      C       3.1039415072    -0.1632975214    -0.0724085136
    3      C       2.7563769025     1.1044930443     0.3650581379
    4      C       1.3995405140     1.2592771311     0.4385070943
    5      C       0.6938366029     0.1181529313     0.0721849663
    6      H       0.9121110721     2.1620599868     0.7630156895
    7      C      -0.6938366029    -0.1181529313     0.0721849663
    8      S      -1.8097857023     1.1601335417    -0.3465318113
    9      C      -1.3995405140    -1.2592771311     0.4385070943
   10      C      -3.1039415072     0.1632975214    -0.0724085136
   11      C      -2.7563769025    -1.1044930443     0.3650581379
   12      H      -3.4826679167    -1.8564323193     0.6086993555
   13      H       4.1043320098    -0.5232218070    -0.2335802357
   14      H       3.4826679167     1.8564323193     0.6086993555
   15      H      -4.1043320098     0.5232218070    -0.2335802357
   16      H      -0.9121110721    -2.1620599868     0.7630156895
 ----------------------------------------------------------------
 Molecular Point Group                 C2    NOp =  2
 Largest Abelian Subgroup              C2    NOp =  2
 Nuclear Repulsion Energy =   638.9403815696 hartrees
 There are       43 alpha and       42 beta electrons
 Applying Cartesian multipole field
    Component          Value
    ---------          -----
     (2,0,0)        1.00000E-11
     (0,2,0)        2.00000E-11
     (0,0,2)       -3.00000E-10
 Nucleus-field energy     =     0.0000000104 hartrees
 Requested basis set is cc-pVTZ
 There are 140 shells and 392 basis functions
 A cutoff of  1.0D-11 yielded   8055 shell pairs
 There are     62683 function pairs (     81690 Cartesian)
 Smallest overlap matrix eigenvalue = 7.22E-05
 Guess MOs from SCF MO coefficient file
 Reading MOs from coefficient file
 Reading MOs from coefficient file
 An unrestricted Hartree-Fock SCF calculation will be
 performed using Pulay DIIS extrapolation
 SCF converges when DIIS error is below 1.0E-08
 Geometry optimization detected.  Setting ReadMinima to 0
 Setting SaveMinima to 0
 using 16 threads for integral computing 
 ---------------------------------------
  Cycle       Energy         DIIS Error
 ---------------------------------------
    1   -1101.3480051661      8.64E-04
    2   -1101.3573077432      1.08E-04
    3   -1101.3579172106      4.30E-05
    4   -1101.3580291658      2.05E-05
    5   -1101.3580508883      7.86E-06
    6   -1101.3580545752      2.88E-06
    7   -1101.3580554482      1.20E-06
    8   -1101.3580556365      3.38E-07
    9   -1101.3580556780      1.36E-07
   10   -1101.3580556883      7.39E-08
   11   -1101.3580556943      5.36E-08
   12   -1101.3580556981      4.23E-08
   13   -1101.3580557020      2.69E-08
   14   -1101.3580557031      1.34E-08
   15   -1101.3580557031      6.40E-09 Convergence criterion met
 ---------------------------------------
 <S^2> = 1.0288
 SCF time:  CPU 1125.05 s  wall 70.36 s
 SCF   energy in the final basis set = -1101.3580557031
 Total energy in the final basis set = -1101.3580557031
 
 Components of the MP2 correlation energy:
        aaaa  correlation energy =        -0.2338724920 au
        abab  correlation energy =        -1.3007245314 au
        bbbb  correlation energy =        -0.2113736655 au
        non-Brillouin singles    =        -0.0000000000 au

 Total  MP2   correlation energy =        -1.7459706890 au
        MP2         total energy =     -1103.1040263921 au

  Entering Z-vector solver.
   1         0           1      0.000534    0.000534
   2         0           1      0.000473    0.000473
   3         0           1      0.000313    0.000313
   4         0           1      0.000247    0.000247
   5         0           1      0.000103    0.000103
   6         0           1      0.000050    0.000050
   7         0           1      0.000029    0.000029
   8         0           1      0.000019    0.000019
   9         0           1      0.000008    0.000008
  10         0           1      0.000004    0.000004
  11         0           1      0.000002    0.000002
  12         1           0      0.000000    0.000000    Roots Converged
 Warning:  Cannot save MP2 spin density
 
 --------------------------------------------------------------
             Orbital Energies (a.u.) and Symmetries
 --------------------------------------------------------------
 
 Alpha MOs, Unrestricted
 -- Occupied --                  
-92.160 -92.160 -11.476 -11.475 -11.452 -11.452 -11.433 -11.433
  1 A     1 B     2 A     2 B     3 B     3 A     4 B     4 A                  
-11.404 -11.404  -9.162  -9.162  -6.843  -6.843  -6.843  -6.843
  5 B     5 A     6 A     6 B     7 B     7 A     8 A     8 B                  
 -6.840  -6.840  -1.395  -1.365  -1.231  -1.197  -1.179  -1.130
  9 B     9 A    10 A    10 B    11 A    11 B    12 A    12 B                  
 -0.999  -0.961  -0.927  -0.905  -0.889  -0.823  -0.753  -0.749
 13 A    13 B    14 A    14 B    15 A    15 B    16 A    16 B                  
 -0.748  -0.738  -0.734  -0.711  -0.696  -0.664  -0.645  -0.575
 17 A    18 A    17 B    18 B    19 A    19 B    20 A    21 A                  
 -0.538  -0.521  -0.481
 20 B    22 A    21 B                                                          
 -- Virtual --                   
 -0.118  -0.037  -0.000   0.001   0.020   0.026   0.036   0.045
 23 A    22 B    23 B    24 A    25 A    24 B    26 A    25 B                  
  0.050   0.054   0.072   0.073   0.107   0.122   0.162   0.178
 26 B    27 A    28 A    27 B    28 B    29 A    29 B    30 A                  
  0.196   0.199   0.210   0.212   0.238   0.241   0.261   0.274
 31 A    30 B    32 A    31 B    33 A    32 B    33 B    34 A                  
  0.282   0.283   0.290   0.301   0.317   0.319   0.346   0.352
 35 A    34 B    35 B    36 A    37 A    36 B    38 A    37 B                  
  0.361   0.365   0.371   0.376   0.383   0.386   0.396   0.404
 38 B    39 A    39 B    40 A    40 B    41 A    41 B    42 B                  
  0.415   0.434   0.434   0.443   0.453   0.462   0.465   0.467
 42 A    43 B    43 A    44 A    44 B    45 A    45 B    46 B                  
  0.470   0.490   0.495   0.502   0.511   0.513   0.533   0.541
 46 A    47 A    48 A    47 B    48 B    49 A    49 B    50 A                  
  0.610   0.615   0.619   0.622   0.648   0.666   0.670   0.672
 50 B    51 A    52 A    51 B    52 B    53 A    53 B    54 B                  
  0.697   0.704   0.732   0.734   0.737   0.750   0.799   0.799
 55 B    54 A    55 A    56 B    56 A    57 A    58 A    57 B                  
  0.808   0.824   0.841   0.855   0.860   0.861   0.905   0.917
 59 A    58 B    60 A    59 B    61 A    60 B    62 A    61 B                  
  0.924   0.932   0.948   0.949   0.983   0.985   1.005   1.005
 62 B    63 A    63 B    64 A    64 B    65 A    65 B    66 A                  
  1.014   1.033   1.040   1.058   1.075   1.090   1.093   1.120
 66 B    67 A    67 B    68 A    68 B    69 B    69 A    70 A                  
  1.134   1.147   1.170   1.186   1.224   1.227   1.251   1.270
 70 B    71 A    72 A    71 B    72 B    73 A    73 B    74 A                  
  1.278   1.289   1.318   1.322   1.331   1.341   1.345   1.368
 75 A    74 B    76 A    75 B    76 B    77 B    77 A    78 B                  
  1.376   1.385   1.397   1.410   1.425   1.438   1.455   1.476
 78 A    79 A    79 B    80 B    80 A    81 A    81 B    82 A                  
  1.507   1.520   1.544   1.558   1.572   1.603   1.611   1.675
 82 B    83 B    83 A    84 B    84 A    85 A    85 B    86 A                  
  1.681   1.685   1.696   1.723   1.724   1.748   1.763   1.767
 86 B    87 A    87 B    88 B    88 A    89 B    89 A    90 A                  
  1.776   1.813   1.865   1.894   1.894   1.927   1.949   1.996
 90 B    91 B    91 A    92 A    92 B    93 A    93 B    94 A                  
  2.016   2.021   2.028   2.038   2.067   2.090   2.096   2.113
 94 B    95 A    95 B    96 B    96 A    97 A    97 B    98 A                  
  2.115   2.135   2.144   2.195   2.223   2.262   2.265   2.283
 98 B    99 B    99 A   100 B   100 A   101 A   101 B   102 A                  
  2.312   2.320   2.337   2.346   2.349   2.389   2.402   2.411
102 B   103 A   104 A   103 B   104 B   105 B   105 A   106 A                  
  2.441   2.485   2.520   2.521   2.537   2.550   2.567   2.578
106 B   107 B   108 B   107 A   109 B   108 A   109 A   110 B                  
  2.590   2.594   2.605   2.615   2.628   2.664   2.700   2.719
110 A   111 B   111 A   112 B   112 A   113 A   113 B   114 A                  
  2.736   2.750   2.771   2.781   2.815   2.826   2.829   2.846
114 B   115 B   115 A   116 A   116 B   117 B   117 A   118 B                  
  2.851   2.881   2.897   2.953   2.969   2.984   2.997   3.011
118 A   119 B   119 A   120 A   121 A   120 B   122 A   121 B                  
  3.038   3.042   3.060   3.060   3.080   3.081   3.093   3.109
123 A   122 B   123 B   124 A   125 A   124 B   126 A   125 B                  
  3.111   3.125   3.140   3.147   3.164   3.164   3.215   3.215
127 A   126 B   127 B   128 A   128 B   129 A   130 A   129 B                  
  3.225   3.238   3.247   3.260   3.268   3.281   3.289   3.307
131 A   130 B   131 B   132 A   132 B   133 A   134 A   133 B                  
  3.314   3.327   3.328   3.337   3.343   3.355   3.356   3.367
135 A   134 B   136 A   135 B   137 A   138 A   136 B   137 B                  
  3.377   3.380   3.399   3.404   3.414   3.446   3.461   3.492
138 B   139 A   140 A   141 A   139 B   142 A   140 B   141 B                  
  3.523   3.527   3.546   3.562   3.572   3.596   3.616   3.624
143 A   142 B   143 B   144 A   145 A   144 B   146 A   145 B                  
  3.647   3.655   3.689   3.697   3.731   3.741   3.757   3.763
146 B   147 A   147 B   148 A   149 A   148 B   149 B   150 A                  
  3.804   3.821   3.826   3.832   3.842   3.871   3.881   3.887
151 A   150 B   151 B   152 A   152 B   153 A   153 B   154 A                  
  3.909   3.947   3.967   3.972   3.982   4.007   4.022   4.022
154 B   155 A   155 B   156 A   156 B   157 A   158 A   157 B                  
  4.043   4.054   4.063   4.108   4.114   4.121   4.131   4.145
158 B   159 A   160 A   161 A   159 B   160 B   161 B   162 A                  
  4.178   4.181   4.209   4.256   4.274   4.312   4.364   4.372
163 A   162 B   164 A   163 B   164 B   165 A   165 B   166 A                  
  4.379   4.399   4.447   4.468   4.470   4.491   4.510   4.535
166 B   167 A   167 B   168 A   168 B   169 A   170 A   169 B                  
  4.558   4.570   4.576   4.600   4.613   4.667   4.680   4.723
170 B   171 B   171 A   172 A   172 B   173 A   173 B   174 B                  
  4.730   4.808   4.809   4.846   4.857   4.877   4.893   4.910
174 A   175 B   175 A   176 B   176 A   177 B   177 A   178 A                  
  4.919   4.964   5.028   5.079   5.085   5.115   5.151   5.230
178 B   179 A   179 B   180 A   180 B   181 B   181 A   182 A                  
  5.237   5.260   5.262   5.338   5.382   5.427   5.470   5.514
182 B   183 A   183 B   184 A   184 B   185 A   186 A   185 B                  
  5.600   5.777   5.815   5.917   5.923   6.008   6.030   6.104
186 B   187 A   187 B   188 B   188 A   189 A   189 B   190 B                  
  6.135   6.381   6.404   6.586   6.592   9.299  10.803  11.770
190 A   191 A   191 B   192 A   192 B   193 A   193 B   194 A                  
 12.533  13.316  13.474  14.662  14.759
194 B   195 A   195 B   196 B   196 A                                          
 
 Beta MOs, Unrestricted
 -- Occupied --                  
-92.161 -92.161 -11.476 -11.475 -11.439 -11.439 -11.426 -11.426
  1 A     1 B     2 A     2 B     3 B     3 A     4 A     4 B                  
-11.411 -11.411  -9.164  -9.164  -6.845  -6.845  -6.844  -6.844
  5 B     5 A     6 A     6 B     7 B     7 A     8 A     8 B                  
 -6.843  -6.843  -1.383  -1.350  -1.220  -1.187  -1.175  -1.106
  9 A     9 B    10 A    10 B    11 A    11 B    12 A    12 B                  
 -0.991  -0.952  -0.915  -0.901  -0.887  -0.819  -0.746  -0.744
 13 A    13 B    14 A    14 B    15 A    15 B    16 B    16 A                  
 -0.739  -0.730  -0.721  -0.686  -0.666  -0.660  -0.644  -0.536
 17 A    17 B    18 A    19 A    18 B    19 B    20 A    20 B                  
 -0.534  -0.507
 21 A    22 A                                                                  
 -- Virtual --                   
 -0.188  -0.055  -0.010   0.006   0.008   0.022   0.028   0.050
 21 B    23 A    22 B    23 B    24 A    25 A    24 B    25 B                  
  0.053   0.058   0.062   0.075   0.078   0.113   0.124   0.164
 26 A    27 A    26 B    28 A    27 B    28 B    29 A    29 B                  
  0.179   0.200   0.202   0.212   0.214   0.241   0.244   0.266
 30 A    31 A    30 B    32 A    31 B    33 A    32 B    33 B                  
  0.278   0.290   0.292   0.294   0.312   0.316   0.322   0.352
 34 A    34 B    35 A    35 B    36 A    37 A    36 B    38 A                  
  0.356   0.372   0.373   0.379   0.382   0.396   0.399   0.404
 37 B    39 A    38 B    40 A    39 B    41 A    40 B    41 B                  
  0.418   0.420   0.436   0.441   0.457   0.459   0.464   0.470
 42 B    42 A    43 A    43 B    44 A    44 B    45 A    45 B                  
  0.471   0.474   0.496   0.500   0.503   0.515   0.516   0.540
 46 B    46 A    47 A    48 A    47 B    49 A    48 B    49 B                  
  0.546   0.611   0.619   0.621   0.624   0.649   0.667   0.672
 50 A    50 B    51 A    52 A    51 B    52 B    53 A    53 B                  
  0.678   0.702   0.710   0.737   0.737   0.744   0.752   0.800
 54 B    55 B    54 A    55 A    56 B    56 A    57 A    58 A                  
  0.802   0.815   0.826   0.843   0.858   0.862   0.865   0.910
 57 B    59 A    58 B    60 A    59 B    61 A    60 B    62 A                  
  0.922   0.926   0.938   0.954   0.959   0.983   0.987   1.006
 61 B    62 B    63 A    64 A    63 B    64 B    65 A    65 B                  
  1.008   1.020   1.039   1.043   1.060   1.076   1.095   1.095
 66 A    66 B    67 A    67 B    68 A    68 B    69 A    69 B                  
  1.123   1.135   1.153   1.176   1.189   1.234   1.236   1.257
 70 A    70 B    71 A    72 A    71 B    73 A    72 B    73 B                  
  1.273   1.284   1.294   1.322   1.324   1.335   1.347   1.353
 74 A    75 A    74 B    76 A    75 B    76 B    77 B    77 A                  
  1.369   1.377   1.389   1.399   1.413   1.425   1.443   1.459
 78 B    78 A    79 A    79 B    80 B    80 A    81 A    81 B                  
  1.479   1.509   1.523   1.549   1.562   1.576   1.603   1.615
 82 A    82 B    83 B    83 A    84 B    84 A    85 A    85 B                  
  1.673   1.682   1.685   1.700   1.722   1.723   1.751   1.763
 86 A    86 B    87 A    87 B    88 B    88 A    89 B    89 A                  
  1.772   1.776   1.814   1.865   1.894   1.895   1.927   1.951
 90 A    90 B    91 B    91 A    92 B    92 A    93 A    93 B                  
  1.996   2.016   2.023   2.027   2.038   2.072   2.091   2.104
 94 A    94 B    95 A    95 B    96 B    96 A    97 A    97 B                  
  2.121   2.126   2.141   2.147   2.198   2.225   2.262   2.271
 98 B    98 A    99 B    99 A   100 B   100 A   101 B   101 A                  
  2.278   2.313   2.322   2.349   2.351   2.362   2.400   2.407
102 A   102 B   103 A   104 A   103 B   104 B   105 B   105 A                  
  2.421   2.448   2.489   2.522   2.522   2.542   2.551   2.571
106 A   106 B   107 B   107 A   108 B   109 B   108 A   109 A                  
  2.584   2.597   2.602   2.611   2.621   2.634   2.666   2.710
110 B   110 A   111 B   111 A   112 B   112 A   113 A   113 B                  
  2.729   2.740   2.758   2.775   2.788   2.821   2.829   2.833
114 A   114 B   115 B   115 A   116 A   116 B   117 B   117 A                  
  2.853   2.857   2.883   2.901   2.957   2.974   2.996   3.000
118 B   118 A   119 B   119 A   120 A   121 A   120 B   122 A                  
  3.018   3.042   3.044   3.062   3.065   3.084   3.086   3.100
121 B   122 B   123 A   123 B   124 A   125 A   124 B   126 A                  
  3.116   3.117   3.129   3.150   3.153   3.169   3.171   3.215
125 B   127 A   126 B   127 B   128 A   128 B   129 A   130 A                  
  3.217   3.230   3.241   3.253   3.264   3.270   3.285   3.296
129 B   131 A   130 B   131 B   132 A   132 B   133 A   134 A                  
  3.314   3.321   3.336   3.337   3.346   3.349   3.356   3.365
133 B   135 A   134 B   136 A   135 B   137 A   138 A   136 B                  
  3.370   3.379   3.384   3.403   3.412   3.419   3.449   3.464
137 B   138 B   139 A   140 A   141 A   139 B   142 A   140 B                  
  3.497   3.528   3.530   3.549   3.567   3.574   3.599   3.620
141 B   143 A   142 B   143 B   144 A   145 A   144 B   146 A                  
  3.629   3.650   3.658   3.692   3.702   3.737   3.743   3.761
145 B   146 B   147 A   147 B   148 A   149 A   148 B   149 B                  
  3.763   3.808   3.825   3.831   3.834   3.844   3.875   3.883
150 A   151 A   150 B   151 B   152 A   152 B   153 A   153 B                  
  3.890   3.911   3.949   3.970   3.974   3.983   4.008   4.024
154 A   154 B   155 A   155 B   156 A   156 B   157 A   158 A                  
  4.025   4.045   4.056   4.064   4.109   4.115   4.122   4.132
157 B   158 B   159 A   160 A   161 A   159 B   160 B   161 B                  
  4.146   4.181   4.183   4.209   4.258   4.275   4.312   4.365
162 A   163 A   162 B   164 A   163 B   164 B   165 A   165 B                  
  4.373   4.380   4.400   4.451   4.470   4.471   4.494   4.512
166 A   166 B   167 A   167 B   168 A   168 B   169 A   170 A                  
  4.537   4.560   4.572   4.579   4.601   4.614   4.668   4.682
169 B   170 B   171 B   171 A   172 A   172 B   173 A   173 B                  
  4.725   4.731   4.811   4.811   4.847   4.859   4.878   4.894
174 B   174 A   175 A   175 B   176 B   176 A   177 B   177 A                  
  4.913   4.921   4.965   5.030   5.085   5.086   5.120   5.152
178 A   178 B   179 A   179 B   180 A   180 B   181 B   181 A                  
  5.231   5.238   5.262   5.263   5.339   5.384   5.428   5.472
182 A   182 B   183 A   183 B   184 A   184 B   185 A   186 A                  
  5.515   5.601   5.778   5.816   5.917   5.924   6.009   6.030
185 B   186 B   187 A   187 B   188 B   188 A   189 A   189 B                  
  6.104   6.135   6.382   6.405   6.586   6.593   9.301  10.806
190 B   190 A   191 A   191 B   192 A   192 B   193 A   193 B                  
 11.774  12.538  13.320  13.475  14.663  14.761
194 A   194 B   195 A   195 B   196 B   196 A                                  
 --------------------------------------------------------------
 
          Ground-State Mulliken Net Atomic Charges

     Atom                 Charge (a.u.)    Spin (a.u.)
  --------------------------------------------------------
      1 S                     0.264535      -0.023108
      2 C                    -0.114124      -0.025140
      3 C                    -0.161017       0.436667
      4 C                    -0.147309      -0.243294
      5 C                    -0.017782       0.355433
      6 H                     0.209901       0.020461
      7 C                    -0.017782       0.355433
      8 S                     0.264535      -0.023108
      9 C                    -0.147309      -0.243294
     10 C                    -0.114124      -0.025140
     11 C                    -0.161017       0.436667
     12 H                     0.224525      -0.033619
     13 H                     0.241271       0.012600
     14 H                     0.224525      -0.033619
     15 H                     0.241271       0.012600
     16 H                     0.209901       0.020461
  --------------------------------------------------------
  Sum of atomic charges =     1.000000
  Sum of spin   charges =     1.000000

 -----------------------------------------------------------------
                    Cartesian Multipole Moments
 -----------------------------------------------------------------
    Charge (ESU x 10^10)
                 4.8032
    Dipole Moment (Debye)
         X       0.0000      Y       0.0000      Z       0.4351
       Tot       0.4351
    Quadrupole Moments (Debye-Ang)
        XX     -21.8625     XY       1.6106     YY     -57.6140
        XZ       0.0000     YZ      -0.0000     ZZ     -71.6957
    Octopole Moments (Debye-Ang^2)
       XXX       0.0000    XXY       0.0000    XYY      -0.0000
       YYY       0.0000    XXZ      -2.4081    XYZ      11.4172
       YYZ       6.2328    XZZ       0.0000    YZZ       0.0000
       ZZZ      -5.4777
    Hexadecapole Moments (Debye-Ang^3)
      XXXX   -1271.0462   XXXY       1.8360   XXYY    -340.8214
      XYYY      23.3700   YYYY    -464.5535   XXXZ       0.0000
      XXYZ      -0.0000   XYYZ       0.0000   YYYZ      -0.0000
      XXZZ    -362.9424   XYZZ      -1.8486   YYZZ    -103.7451
      XZZZ      -0.0000   YZZZ      -0.0000   ZZZZ    -133.3284
 -----------------------------------------------------------------
 DrvMan is completing analytic gradient of the MP2 energy
 MP2 relaxed dipole moment
            1
    1   0.0000000
    2   0.0000000
    3   0.1711829
	Magnitude:	 0.171 au	 0.435 Debye
 MP2 energy read as -1103.104026
 Full Analytical Gradient of MP2 Energy (in au.)
             1             2             3             4             5
    1    0.00075844    0.00004046   -0.00016365    0.00067468   -0.00060145
    2    0.00095674    0.00083643   -0.00040581   -0.00273196    0.00200386
    3   -0.00154490   -0.00244039    0.00074191    0.00662877   -0.00383546
             6             7             8             9            10
    1    0.00001267    0.00060145   -0.00075844   -0.00067468   -0.00004046
    2   -0.00005806   -0.00200386   -0.00095674    0.00273196   -0.00083643
    3    0.00015564   -0.00383546   -0.00154490    0.00662877   -0.00244039
            11            12            13            14            15
    1    0.00016365   -0.00005159    0.00007320    0.00005159   -0.00007320
    2    0.00040581   -0.00013864   -0.00035582    0.00013864    0.00035582
    3    0.00074191   -0.00056287    0.00085730   -0.00056287    0.00085730
            16
    1   -0.00001267
    2    0.00005806
    3    0.00015564
 Gradient time:  CPU 1.53 s  wall 0.10 s
 Geometry Optimization Parameters
   NAtoms,    NIC,     NZ,  NCons,   NDum,   NFix, NCnnct, MaxDiis
       16     111       0       1       0       0       0       0

 Cartesian Hessian Update
 Hessian Updated using BFGS Update


** CONSTRAINED OPTIMIZATION IN DELOCALIZED INTERNAL COORDINATES **
   Searching for a Minimum

   Optimization Cycle:   2

                       Coordinates (Angstroms)
     ATOM                X               Y               Z
      1  S         1.8097857023   -1.1601335417   -0.3465318113
      2  C         3.1039415072   -0.1632975214   -0.0724085136
      3  C         2.7563769025    1.1044930443    0.3650581379
      4  C         1.3995405140    1.2592771311    0.4385070943
      5  C         0.6938366029    0.1181529313    0.0721849663
      6  H         0.9121110721    2.1620599868    0.7630156895
      7  C        -0.6938366029   -0.1181529313    0.0721849663
      8  S        -1.8097857023    1.1601335417   -0.3465318113
      9  C        -1.3995405140   -1.2592771311    0.4385070943
     10  C        -3.1039415072    0.1632975214   -0.0724085136
     11  C        -2.7563769025   -1.1044930443    0.3650581379
     12  H        -3.4826679167   -1.8564323193    0.6086993555
     13  H         4.1043320098   -0.5232218070   -0.2335802357
     14  H         3.4826679167    1.8564323193    0.6086993555
     15  H        -4.1043320098    0.5232218070   -0.2335802357
     16  H        -0.9121110721   -2.1620599868    0.7630156895
   Point Group: c2    Number of degrees of freedom:    22


   Energy is  -1103.104026392

              Constraints and their Current Values
                                        Value     Constraint
   Dihedral:        4   5   7   9     -140.000     -140.000
 Hessian Updated using BFGS Update

 16 Hessian modes will be used to form the next step
  Hessian Eigenvalues:
     0.019307    0.054207    0.159978    0.160693    0.221369    0.239448
     0.250068    0.299048    0.364560    0.366076    0.368032    0.394369
     0.445603    0.467523    0.497777    0.514879

 Minimum Search - Taking Simple RFO Step
 Searching for Lamda that Minimizes Along All modes
 Value Taken    Lamda =  -0.00180795
 Step Taken.  Stepsize is  0.290245

                             Maximum     Tolerance    Cnvgd?
         Gradient           0.004686      0.000300      NO
         Displacement       0.173411      0.001200      NO
         Energy change     -0.002014      0.000001      NO


 New Cartesian Coordinates Obtained by Inverse Iteration

 Displacement from previous Coordinates is:  0.696090
 ----------------------------------------------------------------
             Standard Nuclear Orientation (Angstroms)
    I     Atom           X                Y                Z
 ----------------------------------------------------------------
    1      S       1.8152908818    -1.1798578424    -0.3017400953
    2      C       3.0999671866    -0.1826178017     0.0108560954
    3      C       2.7415578610     1.1066145305     0.3704802663
    4      C       1.3843298372     1.2759555161     0.3534792658
    5      C       0.6934284294     0.1266867650    -0.0128152800
    6      H       0.8845999911     2.1888487100     0.6268334440
    7      C      -0.6934284294    -0.1266867650    -0.0128152800
    8      S      -1.8152908818     1.1798578424    -0.3017400953
    9      C      -1.3843298372    -1.2759555161     0.3534792658
   10      C      -3.0999671866     0.1826178017     0.0108560954
   11      C      -2.7415578610    -1.1066145305     0.3704802663
   12      H      -3.4590698667    -1.8588346197     0.6380858627
   13      H       4.1048527663    -0.5516778276    -0.0902348761
   14      H       3.4590698667     1.8588346197     0.6380858627
   15      H      -4.1048527663     0.5516778276    -0.0902348761
   16      H      -0.8845999911    -2.1888487100     0.6268334440
 ----------------------------------------------------------------
 Molecular Point Group                 C2    NOp =  2
 Largest Abelian Subgroup              C2    NOp =  2
 Nuclear Repulsion Energy =   639.6005154324 hartrees
 There are       43 alpha and       42 beta electrons
 Applying Cartesian multipole field
    Component          Value
    ---------          -----
     (2,0,0)        1.00000E-11
     (0,2,0)        2.00000E-11
     (0,0,2)       -3.00000E-10
 Nucleus-field energy     =     0.0000000129 hartrees
 Requested basis set is cc-pVTZ
 There are 140 shells and 392 basis functions
 A cutoff of  1.0D-11 yielded   8075 shell pairs
 There are     62731 function pairs (     81744 Cartesian)
 Smallest overlap matrix eigenvalue = 6.99E-05
 Guess MOs from SCF MO coefficient file
 Reading MOs from coefficient file
 Reading MOs from coefficient file
 An unrestricted Hartree-Fock SCF calculation will be
 performed using Pulay DIIS extrapolation
 SCF converges when DIIS error is below 1.0E-08
 Geometry optimization detected.  Setting ReadMinima to 0
 Setting SaveMinima to 0
 using 16 threads for integral computing 
 ---------------------------------------
  Cycle       Energy         DIIS Error
 ---------------------------------------
    1   -1101.3246769568      1.34E-03
    2   -1101.3573126811      1.87E-04
    3   -1101.3590530597      7.91E-05
    4   -1101.3593799749      3.78E-05
    5   -1101.3594682592      1.24E-05
    6   -1101.3594790384      5.47E-06
    7   -1101.3594818123      2.14E-06
    8   -1101.3594824670      5.66E-07
    9   -1101.3594825992      2.67E-07
   10   -1101.3594826464      1.61E-07
   11   -1101.3594826708      1.23E-07
   12   -1101.3594826906      8.89E-08
   13   -1101.3594827064      4.04E-08
   14   -1101.3594827103      2.09E-08
   15   -1101.3594827110      1.19E-08
   16   -1101.3594827129      5.26E-09 Convergence criterion met
 ---------------------------------------
 <S^2> = 1.0299
 SCF time:  CPU 1259.10 s  wall 78.75 s
 SCF   energy in the final basis set = -1101.3594827129
 Total energy in the final basis set = -1101.3594827129
 
 Components of the MP2 correlation energy:
        aaaa  correlation energy =        -0.2339299551 au
        abab  correlation energy =        -1.3004403951 au
        bbbb  correlation energy =        -0.2112867675 au
        non-Brillouin singles    =        -0.0000000000 au

 Total  MP2   correlation energy =        -1.7456571177 au
        MP2         total energy =     -1103.1051398306 au

  Entering Z-vector solver.
   1         0           1      0.000532    0.000532
   2         0           1      0.000469    0.000469
   3         0           1      0.000305    0.000305
   4         0           1      0.000239    0.000239
   5         0           1      0.000101    0.000101
   6         0           1      0.000049    0.000049
   7         0           1      0.000028    0.000028
   8         0           1      0.000019    0.000019
   9         0           1      0.000007    0.000007
  10         0           1      0.000003    0.000003
  11         0           1      0.000001    0.000001
  12         1           0      0.000000    0.000000    Roots Converged
 Warning:  Cannot save MP2 spin density
 
 --------------------------------------------------------------
             Orbital Energies (a.u.) and Symmetries
 --------------------------------------------------------------
 
 Alpha MOs, Unrestricted
 -- Occupied --                  
-92.160 -92.160 -11.477 -11.476 -11.452 -11.452 -11.434 -11.434
  1 A     1 B     2 A     2 B     3 B     3 A     4 B     4 A                  
-11.405 -11.405  -9.162  -9.162  -6.843  -6.843  -6.842  -6.842
  5 B     5 A     6 A     6 B     7 B     7 A     8 A     8 B                  
 -6.840  -6.840  -1.395  -1.366  -1.230  -1.198  -1.179  -1.130
  9 B     9 A    10 A    10 B    11 A    11 B    12 A    12 B                  
 -0.998  -0.963  -0.926  -0.906  -0.890  -0.823  -0.754  -0.749
 13 A    13 B    14 A    14 B    15 A    15 B    16 A    16 B                  
 -0.748  -0.739  -0.734  -0.711  -0.695  -0.665  -0.644  -0.579
 17 A    18 A    17 B    18 B    19 A    19 B    20 A    21 A                  
 -0.540  -0.520  -0.480
 20 B    22 A    21 B                                                          
 -- Virtual --                   
 -0.120  -0.034   0.000   0.002   0.020   0.029   0.037   0.045
 23 A    22 B    23 B    24 A    25 A    24 B    26 A    25 B                  
  0.049   0.053   0.070   0.072   0.110   0.125   0.162   0.181
 26 B    27 A    27 B    28 A    28 B    29 A    29 B    30 A                  
  0.198   0.200   0.208   0.214   0.237   0.241   0.259   0.277
 31 A    30 B    32 A    31 B    33 A    32 B    33 B    34 A                  
  0.282   0.285   0.291   0.300   0.315   0.318   0.344   0.354
 34 B    35 A    35 B    36 A    36 B    37 A    38 A    37 B                  
  0.360   0.369   0.371   0.375   0.383   0.388   0.391   0.414
 38 B    39 A    39 B    40 A    40 B    41 A    41 B    42 B                  
  0.415   0.432   0.432   0.446   0.454   0.462   0.465   0.469
 42 A    43 B    43 A    44 A    44 B    45 B    45 A    46 B                  
  0.471   0.492   0.494   0.502   0.509   0.511   0.534   0.545
 46 A    47 A    48 A    47 B    48 B    49 A    49 B    50 A                  
  0.614   0.615   0.621   0.623   0.648   0.664   0.672   0.675
 51 A    50 B    52 A    51 B    52 B    53 A    53 B    54 B                  
  0.703   0.705   0.728   0.730   0.732   0.751   0.796   0.804
 55 B    54 A    55 A    56 B    56 A    57 A    58 A    57 B                  
  0.807   0.816   0.847   0.851   0.858   0.863   0.902   0.922
 59 A    58 B    60 A    59 B    60 B    61 A    62 A    61 B                  
  0.925   0.927   0.950   0.955   0.981   0.992   1.003   1.005
 63 A    62 B    63 B    64 A    64 B    65 A    65 B    66 A                  
  1.011   1.034   1.036   1.059   1.073   1.088   1.093   1.115
 66 B    67 A    67 B    68 A    68 B    69 B    69 A    70 A                  
  1.137   1.145   1.171   1.176   1.224   1.226   1.249   1.265
 70 B    71 A    72 A    71 B    73 A    72 B    73 B    74 A                  
  1.276   1.290   1.307   1.317   1.329   1.345   1.347   1.367
 75 A    74 B    76 A    75 B    76 B    77 A    77 B    78 B                  
  1.377   1.391   1.396   1.406   1.422   1.438   1.457   1.478
 78 A    79 A    79 B    80 B    80 A    81 A    81 B    82 A                  
  1.503   1.522   1.539   1.555   1.575   1.607   1.621   1.675
 82 B    83 B    83 A    84 B    84 A    85 A    85 B    86 B                  
  1.676   1.686   1.698   1.719   1.730   1.739   1.748   1.775
 86 A    87 A    87 B    88 A    88 B    89 B    89 A    90 A                  
  1.783   1.813   1.867   1.891   1.893   1.932   1.950   1.998
 90 B    91 B    91 A    92 A    92 B    93 A    93 B    94 A                  
  2.012   2.022   2.026   2.042   2.068   2.102   2.104   2.114
 94 B    95 B    95 A    96 B    96 A    97 A    97 B    98 A                  
  2.120   2.133   2.143   2.183   2.215   2.262   2.267   2.285
 98 B    99 B    99 A   100 B   100 A   101 B   101 A   102 A                  
  2.312   2.319   2.332   2.349   2.351   2.395   2.400   2.411
102 B   103 A   104 A   103 B   104 B   105 B   105 A   106 A                  
  2.436   2.475   2.523   2.525   2.535   2.538   2.567   2.576
106 B   107 B   108 B   107 A   109 B   108 A   109 A   110 B                  
  2.592   2.596   2.613   2.623   2.631   2.665   2.700   2.721
111 B   110 A   112 B   111 A   112 A   113 A   113 B   114 A                  
  2.735   2.752   2.766   2.794   2.808   2.827   2.837   2.845
114 B   115 B   115 A   116 A   116 B   117 B   117 A   118 B                  
  2.858   2.880   2.897   2.946   2.969   2.986   2.998   3.021
118 A   119 B   119 A   120 A   121 A   120 B   122 A   121 B                  
  3.034   3.041   3.050   3.064   3.076   3.083   3.088   3.101
123 A   122 B   123 B   124 A   124 B   125 A   126 A   125 B                  
  3.111   3.127   3.134   3.145   3.157   3.168   3.205   3.214
127 A   126 B   127 B   128 A   128 B   129 A   130 A   131 A                  
  3.224   3.246   3.259   3.259   3.276   3.284   3.288   3.307
129 B   130 B   132 A   131 B   132 B   133 A   134 A   133 B                  
  3.310   3.325   3.326   3.333   3.341   3.358   3.361   3.375
135 A   134 B   136 A   135 B   137 A   136 B   138 A   137 B                  
  3.378   3.380   3.398   3.400   3.411   3.450   3.455   3.488
138 B   139 A   140 A   141 A   139 B   142 A   140 B   141 B                  
  3.512   3.526   3.551   3.562   3.570   3.591   3.610   3.627
143 A   142 B   143 B   144 A   145 A   144 B   146 A   145 B                  
  3.636   3.648   3.692   3.697   3.730   3.749   3.755   3.766
146 B   147 A   148 A   147 B   149 A   148 B   149 B   150 A                  
  3.807   3.823   3.826   3.828   3.846   3.874   3.879   3.889
151 A   150 B   151 B   152 A   152 B   153 A   153 B   154 A                  
  3.901   3.941   3.965   3.969   3.981   4.002   4.021   4.024
154 B   155 A   155 B   156 A   156 B   157 A   158 A   157 B                  
  4.046   4.055   4.067   4.108   4.118   4.120   4.129   4.140
158 B   159 A   160 A   161 A   159 B   160 B   161 B   162 A                  
  4.173   4.182   4.210   4.259   4.270   4.314   4.354   4.373
162 B   163 A   164 A   163 B   164 B   165 A   165 B   166 A                  
  4.379   4.400   4.445   4.468   4.474   4.493   4.513   4.537
166 B   167 A   167 B   168 A   168 B   169 A   170 A   169 B                  
  4.560   4.567   4.578   4.587   4.610   4.671   4.684   4.725
170 B   171 A   171 B   172 A   172 B   173 A   173 B   174 B                  
  4.727   4.796   4.816   4.854   4.857   4.871   4.900   4.909
174 A   175 B   175 A   176 A   176 B   177 B   177 A   178 A                  
  4.926   4.972   5.026   5.078   5.081   5.112   5.154   5.232
178 B   179 A   179 B   180 A   180 B   181 B   181 A   182 A                  
  5.235   5.258   5.261   5.338   5.381   5.428   5.468   5.512
182 B   183 A   183 B   184 A   184 B   185 A   186 A   185 B                  
  5.604   5.775   5.806   5.916   5.922   6.014   6.027   6.127
186 B   187 A   187 B   188 B   188 A   189 A   189 B   190 B                  
  6.140   6.385   6.399   6.577   6.596   9.260  10.775  11.785
190 A   191 A   191 B   192 A   192 B   193 A   193 B   194 A                  
 12.517  13.370  13.465  14.645  14.783
194 B   195 A   195 B   196 B   196 A                                          
 
 Beta MOs, Unrestricted
 -- Occupied --                  
-92.161 -92.161 -11.476 -11.475 -11.439 -11.439 -11.426 -11.426
  1 A     1 B     2 A     2 B     3 B     3 A     4 A     4 B                  
-11.411 -11.411  -9.163  -9.163  -6.844  -6.844  -6.844  -6.844
  5 B     5 A     6 A     6 B     7 B     7 A     8 A     8 B                  
 -6.843  -6.843  -1.384  -1.350  -1.220  -1.188  -1.175  -1.106
  9 A     9 B    10 A    10 B    11 A    11 B    12 A    12 B                  
 -0.991  -0.953  -0.914  -0.901  -0.888  -0.819  -0.746  -0.743
 13 A    13 B    14 A    14 B    15 A    15 B    16 B    16 A                  
 -0.740  -0.730  -0.721  -0.686  -0.666  -0.661  -0.644  -0.537
 17 A    17 B    18 A    19 A    18 B    19 B    20 A    20 B                  
 -0.534  -0.510
 21 A    22 A                                                                  
 -- Virtual --                   
 -0.185  -0.057  -0.007   0.006   0.008   0.022   0.030   0.051
 21 B    23 A    22 B    23 B    24 A    25 A    24 B    25 B                  
  0.054   0.059   0.062   0.074   0.074   0.114   0.126   0.164
 26 A    27 A    26 B    28 A    27 B    28 B    29 A    29 B                  
  0.183   0.202   0.203   0.210   0.216   0.240   0.243   0.264
 30 A    31 A    30 B    32 A    31 B    33 A    32 B    33 B                  
  0.280   0.290   0.294   0.295   0.311   0.317   0.318   0.351
 34 A    34 B    35 B    35 A    36 A    37 A    36 B    38 A                  
  0.358   0.373   0.376   0.380   0.384   0.395   0.397   0.406
 37 B    38 B    39 A    40 A    39 B    40 B    41 A    41 B                  
  0.420   0.425   0.434   0.439   0.458   0.460   0.467   0.467
 42 A    42 B    43 A    43 B    44 A    44 B    45 A    45 B                  
  0.473   0.475   0.495   0.498   0.503   0.513   0.515   0.540
 46 B    46 A    47 A    48 A    47 B    48 B    49 A    49 B                  
  0.550   0.616   0.618   0.622   0.626   0.649   0.665   0.674
 50 A    50 B    51 A    52 A    51 B    52 B    53 A    53 B                  
  0.682   0.707   0.710   0.731   0.733   0.741   0.753   0.803
 54 B    55 B    54 A    55 A    56 B    56 A    57 A    58 A                  
  0.804   0.808   0.820   0.849   0.853   0.862   0.864   0.908
 57 B    59 A    58 B    60 A    59 B    60 B    61 A    62 A                  
  0.924   0.931   0.932   0.960   0.961   0.982   0.994   1.004
 61 B    62 B    63 A    63 B    64 A    64 B    65 A    65 B                  
  1.008   1.016   1.040   1.040   1.061   1.074   1.094   1.094
 66 A    66 B    67 A    67 B    68 A    68 B    69 B    69 A                  
  1.117   1.138   1.151   1.177   1.179   1.231   1.238   1.255
 70 A    70 B    71 A    72 A    71 B    73 A    72 B    73 B                  
  1.266   1.282   1.295   1.311   1.320   1.333   1.354   1.354
 74 A    75 A    74 B    76 A    75 B    76 B    77 A    77 B                  
  1.368   1.378   1.394   1.398   1.408   1.422   1.443   1.461
 78 B    78 A    79 A    79 B    80 B    80 A    81 A    81 B                  
  1.482   1.506   1.525   1.543   1.559   1.579   1.606   1.624
 82 A    82 B    83 B    83 A    84 B    84 A    85 A    85 B                  
  1.674   1.676   1.686   1.702   1.719   1.729   1.742   1.748
 86 A    86 B    87 A    87 B    88 A    88 B    89 B    89 A                  
  1.779   1.782   1.814   1.866   1.892   1.893   1.932   1.952
 90 A    90 B    91 B    91 A    92 B    92 A    93 A    93 B                  
  1.999   2.011   2.023   2.028   2.042   2.072   2.103   2.115
 94 A    94 B    95 B    95 A    96 B    96 A    97 A    97 B                  
  2.122   2.126   2.137   2.145   2.187   2.218   2.259   2.274
 98 B    98 A    99 B    99 A   100 B   100 A   101 B   101 A                  
  2.282   2.313   2.321   2.341   2.352   2.367   2.404   2.405
102 A   102 B   103 A   104 A   103 B   104 B   105 B   105 A                  
  2.422   2.442   2.479   2.525   2.527   2.539   2.540   2.572
106 A   106 B   107 B   108 B   107 A   108 A   109 B   109 A                  
  2.581   2.601   2.602   2.618   2.627   2.638   2.667   2.710
110 B   111 B   110 A   112 B   111 A   112 A   113 A   113 B                  
  2.731   2.741   2.757   2.770   2.798   2.815   2.831   2.844
114 A   114 B   115 B   115 A   116 A   116 B   117 B   117 A                  
  2.851   2.864   2.883   2.900   2.951   2.974   2.997   3.002
118 B   118 A   119 B   119 A   120 A   121 A   120 B   122 A                  
  3.027   3.039   3.042   3.053   3.069   3.082   3.086   3.094
121 B   123 A   122 B   123 B   124 A   124 B   125 A   126 A                  
  3.107   3.118   3.133   3.142   3.153   3.163   3.173   3.208
125 B   127 A   126 B   127 B   128 A   128 B   129 A   130 A                  
  3.216   3.226   3.250   3.264   3.265   3.277   3.289   3.293
131 A   129 B   130 B   132 A   131 B   132 B   133 A   134 A                  
  3.313   3.315   3.331   3.338   3.346   3.347   3.362   3.363
133 B   135 A   134 B   136 A   135 B   137 A   138 A   136 B                  
  3.379   3.382   3.385   3.402   3.408   3.416   3.453   3.457
137 B   138 B   139 A   140 A   141 A   139 B   142 A   140 B                  
  3.494   3.517   3.530   3.555   3.567   3.572   3.593   3.614
141 B   143 A   142 B   143 B   144 A   145 A   144 B   146 A                  
  3.632   3.640   3.651   3.697   3.700   3.735   3.750   3.759
145 B   146 B   147 A   148 A   147 B   149 A   148 B   149 B                  
  3.766   3.810   3.826   3.830   3.832   3.848   3.878   3.881
150 A   151 A   150 B   152 A   151 B   152 B   153 A   153 B                  
  3.893   3.903   3.942   3.969   3.972   3.983   4.004   4.023
154 A   154 B   155 A   155 B   156 A   156 B   157 A   158 A                  
  4.026   4.047   4.057   4.068   4.109   4.119   4.120   4.130
157 B   158 B   159 A   160 A   161 A   159 B   160 B   161 B                  
  4.141   4.175   4.185   4.211   4.259   4.272   4.314   4.355
162 A   162 B   163 A   164 A   163 B   164 B   165 A   165 B                  
  4.375   4.380   4.401   4.450   4.470   4.474   4.495   4.515
166 A   166 B   167 A   167 B   168 A   168 B   169 A   170 A                  
  4.539   4.562   4.571   4.579   4.588   4.611   4.671   4.686
169 B   170 B   171 A   171 B   172 A   172 B   173 A   173 B                  
  4.728   4.729   4.800   4.819   4.857   4.859   4.873   4.901
174 B   174 A   175 B   175 A   176 A   176 B   177 B   177 A                  
  4.912   4.928   4.974   5.028   5.082   5.085   5.118   5.155
178 A   178 B   179 A   179 B   180 B   180 A   181 B   181 A                  
  5.234   5.236   5.259   5.261   5.339   5.382   5.429   5.469
182 A   182 B   183 A   183 B   184 A   184 B   185 A   186 A                  
  5.514   5.605   5.775   5.807   5.917   5.922   6.015   6.028
185 B   186 B   187 A   187 B   188 B   188 A   189 A   189 B                  
  6.127   6.140   6.386   6.400   6.577   6.596   9.262  10.778
190 B   190 A   191 A   191 B   192 A   192 B   193 A   193 B                  
 11.789  12.522  13.373  13.466  14.646  14.785
194 A   194 B   195 A   195 B   196 B   196 A                                  
 --------------------------------------------------------------
 
          Ground-State Mulliken Net Atomic Charges

     Atom                 Charge (a.u.)    Spin (a.u.)
  --------------------------------------------------------
      1 S                     0.258322      -0.021975
      2 C                    -0.111872      -0.014458
      3 C                    -0.165385       0.424519
      4 C                    -0.139317      -0.229347
      5 C                    -0.014885       0.342952
      6 H                     0.207280       0.019732
      7 C                    -0.014885       0.342952
      8 S                     0.258322      -0.021975
      9 C                    -0.139317      -0.229347
     10 C                    -0.111872      -0.014458
     11 C                    -0.165385       0.424519
     12 H                     0.224664      -0.032923
     13 H                     0.241192       0.011500
     14 H                     0.224664      -0.032923
     15 H                     0.241192       0.011500
     16 H                     0.207280       0.019732
  --------------------------------------------------------
  Sum of atomic charges =     1.000000
  Sum of spin   charges =     1.000000

 -----------------------------------------------------------------
                    Cartesian Multipole Moments
 -----------------------------------------------------------------
    Charge (ESU x 10^10)
                 4.8032
    Dipole Moment (Debye)
         X       0.0000      Y      -0.0000      Z       0.6843
       Tot       0.6843
    Quadrupole Moments (Debye-Ang)
        XX     -22.1335     XY       1.2157     YY     -57.2480
        XZ      -0.0000     YZ       0.0000     ZZ     -72.0761
    Octopole Moments (Debye-Ang^2)
       XXX       0.0000    XXY      -0.0000    XYY       0.0000
       YYY       0.0000    XXZ       3.3753    XYZ      10.3987
       YYZ       5.5434    XZZ       0.0000    YZZ      -0.0000
[...]

                       Coordinates (Angstroms)
     ATOM                X               Y               Z
      1  S         1.8197504608   -1.1877958540   -0.2857481215
      2  C         3.0983950824   -0.1908573059    0.0618017600
      3  C         2.7324595190    1.1079227052    0.3746018252
      4  C         1.3781052625    1.2820122959    0.3059447465
      5  C         0.6899736953    0.1279337194   -0.0614044010
      6  H         0.8788563099    2.2083713244    0.5307979342
      7  C        -0.6899736953   -0.1279337194   -0.0614044010
      8  S        -1.8197504608    1.1877958540   -0.2857481215
      9  C        -1.3781052625   -1.2820122959    0.3059447465
     10  C        -3.0983950824    0.1908573059    0.0618017600
     11  C        -2.7324595190   -1.1079227052    0.3746018252
     12  H        -3.4424423748   -1.8646477841    0.6492233028
     13  H         4.1034902871   -0.5702612395    0.0197276365
     14  H         3.4424423748    1.8646477841    0.6492233028
     15  H        -4.1034902871    0.5702612395    0.0197276365
     16  H        -0.8788563099   -2.2083713244    0.5307979342

Z-matrix Print:
$molecule
1 2
S 
C  1 1.658195
H  2 1.075144 1 120.033240
C  2 1.385129 1 114.038720 3 -179.252221 0
H  4 1.073371 2 122.961729 1 -178.232524 0
C  4 1.367222 2 111.700517 1 0.899607 0
H  6 1.076081 4 123.966371 2 -178.643302 0
C  6 1.392971 4 113.397167 2 0.153415 0
C  8 1.403468 6 129.551284 4 -170.481099 0
C  9 1.392971 8 129.551284 6 140.000000 0
H  10 1.076081 9 122.625043 8 8.333981 0
C  10 1.367222 9 113.397167 8 -170.481099 0
H  12 1.073371 10 125.331472 9 179.260849 0
C  12 1.385129 10 111.700517 9 0.153415 0
H  14 1.075144 12 125.923276 10 -178.300962 0
S  14 1.658195 12 114.038720 10 0.899607 0
$end

 
 --------------------------------------------------------------
             Orbital Energies (a.u.) and Symmetries
 --------------------------------------------------------------
 
 Alpha MOs, Unrestricted
 -- Occupied --                  
-92.160 -92.160 -11.477 -11.476 -11.452 -11.452 -11.434 -11.434
  1 A     1 B     2 A     2 B     3 B     3 A     4 B     4 A                  
-11.404 -11.404  -9.162  -9.162  -6.843  -6.843  -6.842  -6.842
  5 B     5 A     6 A     6 B     7 B     7 A     8 A     8 B                  
 -6.840  -6.840  -1.395  -1.365  -1.231  -1.198  -1.179  -1.130
  9 B     9 A    10 A    10 B    11 A    11 B    12 A    12 B                  
 -1.000  -0.963  -0.925  -0.905  -0.890  -0.823  -0.754  -0.749
 13 A    13 B    14 A    14 B    15 A    15 B    16 A    16 B                  
 -0.748  -0.741  -0.734  -0.711  -0.695  -0.664  -0.642  -0.580
 17 A    18 A    17 B    18 B    19 A    19 B    20 A    21 A                  
 -0.540  -0.520  -0.479
 20 B    22 A    21 B                                                          
 -- Virtual --                   
 -0.123  -0.033  -0.000   0.003   0.020   0.030   0.036   0.045
 23 A    22 B    23 B    24 A    25 A    24 B    26 A    25 B                  
  0.049   0.053   0.068   0.071   0.112   0.128   0.161   0.182
 26 B    27 A    27 B    28 A    28 B    29 A    29 B    30 A                  
  0.199   0.202   0.208   0.215   0.235   0.241   0.258   0.277
 31 A    30 B    32 A    31 B    33 A    32 B    33 B    34 A                  
  0.282   0.288   0.291   0.298   0.313   0.318   0.343   0.357
 34 B    35 A    35 B    36 A    36 B    37 A    38 A    37 B                  
  0.358   0.368   0.369   0.373   0.385   0.388   0.389   0.416
 38 B    39 B    39 A    40 A    40 B    41 A    41 B    42 A                  
  0.420   0.432   0.433   0.446   0.455   0.460   0.467   0.470
 42 B    43 A    43 B    44 A    44 B    45 B    45 A    46 B                  
  0.471   0.489   0.496   0.500   0.509   0.509   0.534   0.547
 46 A    47 A    48 A    47 B    49 A    48 B    49 B    50 A                  
  0.611   0.616   0.624   0.624   0.647   0.662   0.672   0.679
 51 A    50 B    52 A    51 B    52 B    53 A    53 B    54 B                  
  0.704   0.707   0.724   0.726   0.730   0.755   0.791   0.800
 54 A    55 B    55 A    56 B    56 A    57 A    58 A    57 B                  
  0.810   0.817   0.845   0.848   0.858   0.865   0.902   0.921
 59 A    58 B    60 A    59 B    60 B    61 A    62 A    61 B                  
  0.922   0.929   0.947   0.957   0.980   0.995   1.001   1.003
 63 A    62 B    63 B    64 A    64 B    65 A    65 B    66 A                  
  1.009   1.032   1.036   1.061   1.073   1.090   1.091   1.110
 66 B    67 B    67 A    68 A    68 B    69 B    69 A    70 A                  
  1.138   1.145   1.172   1.173   1.221   1.227   1.248   1.263
 70 B    71 A    72 A    71 B    73 A    72 B    73 B    74 A                  
  1.275   1.287   1.305   1.315   1.329   1.345   1.350   1.368
 75 A    74 B    76 A    75 B    76 B    77 A    77 B    78 B                  
  1.377   1.391   1.397   1.404   1.422   1.438   1.456   1.480
 78 A    79 A    79 B    80 B    80 A    81 A    81 B    82 A                  
  1.501   1.523   1.535   1.554   1.580   1.608   1.626   1.669
 82 B    83 B    83 A    84 B    84 A    85 A    85 B    86 B                  
  1.677   1.686   1.700   1.716   1.733   1.737   1.742   1.777
 86 A    87 A    87 B    88 A    88 B    89 B    89 A    90 A                  
  1.782   1.812   1.867   1.890   1.893   1.935   1.948   1.999
 90 B    91 B    91 A    92 A    92 B    93 A    93 B    94 A                  
  2.010   2.022   2.026   2.044   2.068   2.103   2.103   2.114
 94 B    95 B    95 A    96 B    96 A    97 B    97 A    98 A                  
  2.119   2.137   2.143   2.176   2.214   2.260   2.268   2.283
 98 B    99 B    99 A   100 B   100 A   101 B   101 A   102 A                  
  2.307   2.320   2.327   2.348   2.354   2.394   2.398   2.410
102 B   103 A   104 A   103 B   104 B   105 B   105 A   106 A                  
  2.434   2.473   2.524   2.525   2.527   2.534   2.565   2.573
106 B   107 B   108 B   107 A   108 A   109 B   109 A   110 B                  
  2.593   2.594   2.612   2.624   2.639   2.671   2.699   2.722
111 B   110 A   112 B   111 A   112 A   113 A   113 B   114 A                  
  2.737   2.754   2.763   2.797   2.806   2.829   2.842   2.846
114 B   115 B   115 A   116 A   116 B   117 B   118 B   117 A                  
  2.861   2.879   2.894   2.946   2.971   2.986   2.998   3.023
118 A   119 B   119 A   120 A   121 A   120 B   122 A   121 B                  
  3.030   3.036   3.046   3.065   3.078   3.082   3.087   3.099
123 A   122 B   123 B   124 A   124 B   125 A   126 A   125 B                  
  3.110   3.118   3.137   3.146   3.159   3.166   3.199   3.210
127 A   126 B   127 B   128 A   128 B   129 A   130 A   131 A                  
  3.228   3.247   3.261   3.261   3.282   3.284   3.290   3.307
129 B   130 B   131 B   132 A   133 A   132 B   134 A   133 B                  
  3.309   3.325   3.326   3.330   3.343   3.356   3.363   3.375
135 A   134 B   136 A   135 B   137 A   136 B   138 A   137 B                  
  3.378   3.379   3.393   3.397   3.412   3.450   3.450   3.486
138 B   139 A   140 A   141 A   139 B   142 A   140 B   141 B                  
  3.507   3.521   3.549   3.563   3.569   3.587   3.608   3.623
143 A   142 B   143 B   144 A   145 A   144 B   146 A   145 B                  
  3.632   3.646   3.691   3.695   3.732   3.753   3.754   3.770
146 B   147 A   148 A   147 B   149 A   148 B   149 B   150 A                  
  3.806   3.821   3.826   3.828   3.851   3.873   3.877   3.890
151 A   150 B   151 B   152 A   152 B   153 A   153 B   154 A                  
  3.898   3.937   3.962   3.968   3.978   4.002   4.017   4.028
154 B   155 A   155 B   156 A   156 B   157 A   158 A   157 B                  
  4.047   4.055   4.071   4.108   4.117   4.121   4.127   4.138
158 B   159 A   160 A   161 A   159 B   160 B   161 B   162 A                  
  4.172   4.182   4.213   4.257   4.268   4.317   4.352   4.372
162 B   163 A   164 A   163 B   164 B   165 A   165 B   166 A                  
  4.379   4.398   4.446   4.468   4.477   4.492   4.514   4.539
166 B   167 A   167 B   168 A   168 B   169 A   170 A   169 B                  
  4.562   4.566   4.580   4.588   4.607   4.674   4.683   4.727
171 A   170 B   171 B   172 A   172 B   173 A   173 B   174 A                  
  4.728   4.790   4.815   4.854   4.868   4.870   4.899   4.910
174 B   175 B   175 A   176 A   176 B   177 B   177 A   178 A                  
  4.930   4.976   5.024   5.079   5.081   5.112   5.155   5.234
178 B   179 A   179 B   180 B   180 A   181 B   181 A   182 A                  
  5.235   5.259   5.261   5.337   5.381   5.428   5.467   5.506
182 B   183 A   183 B   184 A   184 B   185 A   186 A   185 B                  
  5.608   5.769   5.800   5.918   5.925   6.013   6.023   6.125
186 B   187 A   187 B   188 B   188 A   189 A   189 B   190 B                  
  6.137   6.382   6.394   6.574   6.593   9.224  10.773  11.779
190 A   191 A   191 B   192 A   192 B   193 A   193 B   194 A                  
 12.570  13.377  13.500  14.637  14.778
194 B   195 A   195 B   196 B   196 A                                          
 
 Beta MOs, Unrestricted
 -- Occupied --                  
-92.161 -92.161 -11.477 -11.476 -11.440 -11.440 -11.427 -11.427
  1 A     1 B     2 A     2 B     3 B     3 A     4 A     4 B                  
-11.411 -11.411  -9.163  -9.163  -6.844  -6.844  -6.844  -6.844
  5 B     5 A     6 A     6 B     7 B     7 A     8 A     8 B                  
 -6.843  -6.843  -1.383  -1.350  -1.221  -1.188  -1.174  -1.106
  9 A     9 B    10 A    10 B    11 A    11 B    12 A    12 B                  
 -0.992  -0.954  -0.913  -0.901  -0.889  -0.819  -0.747  -0.745
 13 A    13 B    14 A    14 B    15 A    15 B    16 B    16 A                  
 -0.740  -0.730  -0.721  -0.687  -0.665  -0.661  -0.642  -0.537
 17 A    17 B    18 A    19 A    18 B    19 B    20 A    20 B                  
 -0.534  -0.513
 21 A    22 A                                                                  
 -- Virtual --                   
 -0.183  -0.058  -0.006   0.006   0.009   0.022   0.030   0.051
 21 B    23 A    22 B    23 B    24 A    25 A    24 B    25 B                  
  0.055   0.059   0.062   0.073   0.073   0.115   0.128   0.163
 26 A    27 A    26 B    27 B    28 A    28 B    29 A    29 B                  
  0.184   0.203   0.205   0.210   0.217   0.239   0.243   0.262
 30 A    31 A    30 B    32 A    31 B    33 A    32 B    33 B                  
  0.281   0.290   0.294   0.297   0.310   0.316   0.317   0.350
 34 A    34 B    35 B    35 A    36 A    36 B    37 A    38 A                  
  0.359   0.372   0.376   0.380   0.382   0.395   0.397   0.405
 37 B    38 B    39 A    40 A    39 B    40 B    41 A    41 B                  
  0.421   0.431   0.433   0.439   0.458   0.461   0.465   0.468
 42 A    42 B    43 A    43 B    44 A    44 B    45 B    45 A                  
  0.474   0.475   0.492   0.500   0.503   0.512   0.514   0.540
 46 B    46 A    47 A    48 A    47 B    48 B    49 A    49 B                  
  0.552   0.616   0.617   0.625   0.628   0.648   0.664   0.674
 50 A    51 A    50 B    52 A    51 B    52 B    53 A    53 B                  
  0.685   0.708   0.711   0.728   0.731   0.740   0.757   0.797
 54 B    54 A    55 B    55 A    56 B    56 A    57 A    58 A                  
  0.800   0.812   0.821   0.848   0.850   0.862   0.866   0.908
 57 B    59 A    58 B    60 A    59 B    60 B    61 A    62 A                  
  0.924   0.929   0.932   0.957   0.963   0.980   0.997   1.003
 61 B    63 A    62 B    63 B    64 A    64 B    65 A    65 B                  
  1.007   1.015   1.036   1.041   1.063   1.073   1.092   1.096
 66 A    66 B    67 B    67 A    68 A    68 B    69 A    69 B                  
  1.112   1.139   1.151   1.176   1.178   1.228   1.239   1.254
 70 A    70 B    71 A    71 B    72 A    73 A    72 B    73 B                  
  1.264   1.281   1.293   1.309   1.318   1.332   1.353   1.356
 74 A    75 A    74 B    76 A    75 B    76 B    77 A    77 B                  
  1.369   1.378   1.395   1.398   1.407   1.423   1.444   1.460
 78 B    78 A    79 A    79 B    80 B    80 A    81 A    81 B                  
  1.483   1.504   1.526   1.540   1.557   1.584   1.608   1.629
 82 A    82 B    83 B    83 A    84 B    84 A    85 A    85 B                  
  1.671   1.674   1.687   1.704   1.715   1.733   1.739   1.742
 86 B    86 A    87 A    87 B    88 A    88 B    89 B    89 A                  
  1.781   1.782   1.814   1.867   1.891   1.892   1.935   1.950
 90 A    90 B    91 B    91 A    92 A    92 B    93 A    93 B                  
  2.000   2.009   2.023   2.028   2.044   2.073   2.105   2.116
 94 A    94 B    95 B    95 A    96 B    96 A    97 A    97 B                  
  2.121   2.126   2.138   2.145   2.181   2.217   2.257   2.274
 98 B    98 A    99 B    99 A   100 B   100 A   101 B   101 A                  
  2.282   2.309   2.321   2.335   2.352   2.369   2.403   2.403
102 A   102 B   103 A   104 A   103 B   104 B   105 A   105 B                  
  2.422   2.440   2.477   2.526   2.527   2.529   2.538   2.571
106 A   106 B   107 B   107 A   108 B   108 A   109 B   109 A                  
  2.579   2.601   2.602   2.617   2.629   2.645   2.673   2.709
110 B   110 A   111 B   112 B   111 A   112 A   113 A   113 B                  
  2.731   2.744   2.758   2.768   2.800   2.813   2.833   2.848
114 A   114 B   115 B   115 A   116 A   116 B   117 B   118 B                  
  2.854   2.866   2.882   2.897   2.950   2.976   2.996   3.001
117 A   118 A   119 B   119 A   120 A   121 A   120 B   122 A                  
  3.028   3.037   3.038   3.050   3.071   3.084   3.086   3.092
121 B   123 A   122 B   123 B   124 A   124 B   125 A   126 A                  
  3.105   3.117   3.128   3.142   3.155   3.164   3.170   3.204
125 B   127 A   126 B   127 B   128 A   128 B   129 A   130 A                  
  3.210   3.231   3.252   3.264   3.266   3.287   3.289   3.293
131 A   129 B   130 B   131 B   132 A   132 B   133 A   134 A                  
  3.312   3.314   3.331   3.340   3.345   3.348   3.359   3.364
133 B   135 A   134 B   136 A   135 B   137 A   136 B   138 A                  
  3.379   3.381   3.383   3.398   3.404   3.417   3.453   3.453
137 B   138 B   139 A   140 A   141 A   139 B   140 B   142 A                  
  3.491   3.512   3.525   3.553   3.568   3.571   3.589   3.611
141 B   143 A   142 B   143 B   144 A   145 A   144 B   146 A                  
  3.627   3.636   3.650   3.695   3.697   3.738   3.753   3.759
145 B   146 B   147 A   148 A   147 B   149 A   148 B   149 B                  
  3.771   3.809   3.824   3.830   3.831   3.853   3.877   3.880
150 A   151 A   150 B   152 A   151 B   152 B   153 A   153 B                  
  3.893   3.900   3.938   3.965   3.971   3.980   4.004   4.018
154 A   154 B   155 A   155 B   156 A   156 B   157 A   158 A                  
  4.030   4.048   4.057   4.073   4.110   4.118   4.123   4.128
157 B   158 B   159 A   160 A   161 A   159 B   160 B   161 B                  
  4.139   4.174   4.184   4.214   4.258   4.270   4.317   4.353
162 A   162 B   163 A   164 A   163 B   164 B   165 A   165 B                  
  4.373   4.381   4.399   4.451   4.470   4.478   4.495   4.516
166 A   166 B   167 A   167 B   168 A   168 B   169 A   170 A                  
  4.541   4.566   4.568   4.581   4.589   4.608   4.675   4.685
169 B   171 A   170 B   171 B   172 A   172 B   173 A   173 B                  
  4.728   4.730   4.793   4.817   4.857   4.870   4.871   4.900
174 A   174 B   175 B   175 A   176 A   176 B   177 B   177 A                  
  4.913   4.932   4.978   5.026   5.080   5.088   5.118   5.156
178 A   178 B   179 A   179 B   180 B   180 A   181 B   181 A                  
  5.235   5.236   5.260   5.262   5.338   5.382   5.429   5.468
182 A   182 B   183 A   183 B   184 A   184 B   185 A   186 A                  
  5.507   5.609   5.770   5.801   5.919   5.926   6.014   6.024
185 B   186 B   187 A   187 B   188 B   188 A   189 A   189 B                  
  6.125   6.137   6.382   6.395   6.574   6.594   9.226  10.777
190 B   190 A   191 A   191 B   192 A   192 B   193 A   193 B                  
 11.783  12.576  13.380  13.500  14.638  14.780
194 A   194 B   195 A   195 B   196 B   196 A                                  
 --------------------------------------------------------------
 
          Ground-State Mulliken Net Atomic Charges

     Atom                 Charge (a.u.)    Spin (a.u.)
  --------------------------------------------------------
      1 S                     0.253415      -0.022400
      2 C                    -0.110206      -0.007152
      3 C                    -0.167337       0.411727
      4 C                    -0.135115      -0.216660
      5 C                    -0.012803       0.336647
      6 H                     0.206007       0.019163
      7 C                    -0.012803       0.336647
      8 S                     0.253415      -0.022400
      9 C                    -0.135115      -0.216660
     10 C                    -0.110206      -0.007152
     11 C                    -0.167337       0.411727
     12 H                     0.224737      -0.032289
     13 H                     0.241301       0.010965
     14 H                     0.224737      -0.032289
     15 H                     0.241301       0.010965
     16 H                     0.206007       0.019163
  --------------------------------------------------------
  Sum of atomic charges =     1.000000
  Sum of spin   charges =     1.000000

 -----------------------------------------------------------------
                    Cartesian Multipole Moments
 -----------------------------------------------------------------
    Charge (ESU x 10^10)
                 4.8032
    Dipole Moment (Debye)
         X       0.0000      Y      -0.0000      Z       0.8068
       Tot       0.8068
    Quadrupole Moments (Debye-Ang)
        XX     -22.2757     XY       1.0837     YY     -57.0398
        XZ      -0.0000     YZ       0.0000     ZZ     -72.2709
    Octopole Moments (Debye-Ang^2)
       XXX       0.0000    XXY       0.0000    XYY       0.0000
       YYY      -0.0000    XXZ       7.5923    XYZ       9.5649
       YYZ       5.0170    XZZ       0.0000    YZZ       0.0000
       ZZZ      -6.1420
    Hexadecapole Moments (Debye-Ang^3)
      XXXX   -1268.7705   XXXY      -1.4189   XXYY    -339.9219
      XYYY      31.3760   YYYY    -476.0505   XXXZ       0.0000
      XXYZ      -0.0000   XYYZ      -0.0000   YYYZ       0.0000
      XXZZ    -360.6143   XYZZ       1.5009   YYZZ    -106.9797
      XZZZ      -0.0000   YZZZ       0.0000   ZZZZ    -119.3286
 -----------------------------------------------------------------
Archival summary:
1\1\nid01582\OPT\MP2\BasisUnspecified\286(1+,2)\TueMar711:00:402017TueMar711:00:402017\0\\#,OPT,MP2,BasisUnspecified,\\1,2\S\C,1,1.65819\H,2,1.07514,1,120.033\C,2,1.38513,1,114.039,3,-179.252,0\H,4,1.07337,2,122.962,1,-178.233,0\C,4,1.36722,2,111.701,1,0.899607,0\H,6,1.07608,4,123.966,2,-178.643,0\C,6,1.39297,4,113.397,2,0.153415,0\C,8,1.40347,6,129.551,4,-170.481,0\C,9,1.39297,8,129.551,6,140,0\H,10,1.07608,9,122.625,8,8.33398,0\C,10,1.36722,9,113.397,8,-170.481,0\H,12,1.07337,10,125.331,9,179.261,0\C,12,1.38513,10,111.701,9,0.153415,0\H,14,1.07514,12,125.923,10,-178.301,0\S,14,1.65819,12,114.039,10,0.899607,0\\HF=-1101.36032\MP2=-1103.10538\\@

 Total job time:  21254.69s(wall), 106056.36s(cpu) 
 Tue Mar  7 11:00:40 2017

        *************************************************************
        *                                                           *
        *  Thank you very much for using Q-Chem.  Have a nice day.  *
        *                                                           *
        *************************************************************


0 sent ACK to 0 
now end server 0 ... 
