srun -N 1 --ntasks-per-node 1 --cpus-per-task 64 --cpu_bind=cores --nodelist nid01567 /global/project/projectdirs/jcesr/qchem/qc44/cnl_qc441/dist/exe/qcprog.cori.haswell.exe .pt_mp2_hole_-70.0.in.60630.qcin.1 /dev/shm/eg_qchem/qchem60630/
Process 0 of 1 is on nid01567 - thread support 0
initial socket setup ...start
initial socket setup ...done 
now start server 0 ... 
nid01567 10.128.6
Q-Chem Developer Version! Running on 10.128.6.*
                  Welcome to Q-Chem
     A Quantum Leap Into The Future Of Chemistry


 Q-Chem 4.4, Q-Chem, Inc., Pleasanton, CA (2016)

 Y. Shao,  Z. Gan,  E. Epifanovsky,  A. T. B. Gilbert,  M. Wormit,  
 J. Kussmann,  A. W. Lange,  A. Behn,  J. Deng,  X. Feng,  D. Ghosh,  
 M. Goldey,  P. R. Horn,  L. D. Jacobson,  I. Kaliman,  F.Rob,  
 R. Z. Khaliullin,  T. Kus,  A. Landau,  J. Liu,  E. I. Proynov,  Y. M. Rhee,  
 R. M. Richard,  M. A. Rohrdanz,  R. P. Steele,  E. J. Sundstrom,  
 H. L. Woodcock III,  P. M. Zimmerman,  D. Zuev,  B. Albrecht,  E. Alguire,  
 B. Austin,  S. A. Baeppler,  G. J. O. Beran,  Y. A. Bernard,  E. Berquist,  
 K. Brandhorst,  K. B. Bravaya,  S. T. Brown,  D. Casanova,  C.-M. Chang,  
 Y. Chen,  S. H. Chien,  K. D. Closser,  M. P. Coons,  D. L. Crittenden,  
 S. Dasgupta,  M. Diedenhofen,  R. A. DiStasio Jr.,  H. Do,  A. D. Dutoi,  
 R. G. Edgar,  P.-T. Fang,  S. Fatehi,  Q. Feng,  L. Fusti-Molnar,  
 A. Ghysels,  A. Golubeva-Zadorozhnaya,  J. Gomes,  A. Gunina,  
 M. W. D. Hanson-Heine,  P. H. P. Harbach,  A. W. Hauser,  E. G. Hohenstein,  
 Z. C. Holden,  K. Hui,  T.-C. Jagau,  H. Ji,  B. Kaduk,  K. Khistyaev,  
 Jaehoon Kim,  Jihan Kim,  R. A. King,  P. Klunzinger,  D. Kosenkov,  
 T. Kowalczyk,  C. M. Krauter,  A. Kunitsa,  K. U. Lao,  A. Laurent,  
 K. V. Lawler,  D. Lefrancois,  S. Lehtola,  S. V. Levchenko,  C. Y. Lin,  
 Y.-S. Lin,  F. Liu,  E. Livshits,  R. C. Lochan,  A. Luenser,  P. Manohar,  
 S. F. Manzer,  S.-P. Mao,  Y. Mao,  N. Mardirossian,  A. V. Marenich,  
 L. A. Martinez-Martinez,  S. A. Maurer,  N. J. Mayhall,  J.-M. Mewes,  
 A. F. Morrison,  K. Nanda,  C. M. Oana,  R. Olivares-Amaya,  D. P. O'Neill,  
 J. A. Parkhill,  T. M. Perrine,  R. Peverati,  P. A. Pieniazek,  F. Plasser,  
 A. Prociuk,  D. R. Rehn,  E. Rosta,  N. J. Russ,  N. Sergueev,  
 S. M. Sharada,  S. Sharma,  D. W. Small,  A. Sodt,  T. Stauch,  T. Stein,  
 D. Stuck,  Y.-C. Su,  A. J. W. Thom,  T. Tsuchimochi,  L. Vogt,  O. Vydrov,  
 T. Wang,  M. A. Watson,  J. Wenzel,  A. White,  C. F. Williams,  
 V. Vanovschi,  S. Yeganeh,  S. R. Yost,  Z.-Q. You,  I. Y. Zhang,  X. Zhang,  
 Y. Zhao,  B. R. Brooks,  G. K. L. Chan,  D. M. Chipman,  C. J. Cramer,  
 W. A. Goddard III,  M. S. Gordon,  W. J. Hehre,  A. Klamt,  
 H. F. Schaefer III,  M. W. Schmidt,  C. D. Sherrill,  D. G. Truhlar,  
 A. Warshel,  X. Xu,  A. Aspuru-Guzik,  R. Baer,  A. T. Bell,  N. A. Besley,  
 J.-D. Chai,  A. Dreuw,  B. D. Dunietz,  T. R. Furlani,  S. R. Gwaltney,  
 C.-P. Hsu,  Y. Jung,  J. Kong,  D. S. Lambrecht,  W. Liang,  C. Ochsenfeld,  
 V. A. Rassolov,  L. V. Slipchenko,  J. E. Subotnik,  T. Van Voorhis,  
 J. M. Herbert,  A. I. Krylov,  P. M. W. Gill,  M. Head-Gordon

 Contributors to earlier versions of Q-Chem not listed above: 
 R. D. Adamson,  J. Baker,  E. F. C. Byrd,  A. K. Chakraborty,  C.-L. Cheng,  
 H. Dachsel,  R. J. Doerksen,  G. Hawkins,  A. Heyden,  S. Hirata,  
 G. Kedziora,  F. J. Keil,  C. Kelley,  P. P. Korambath,  W. Kurlancheek,  
 A. M. Lee,  M. S. Lee,  D. Liotard,  I. Lotan,  P. E. Maslen,  N. Nair,  
 D. Neuhauser,  R. Olson,  B. Peters,  J. Ritchie,  N. E. Schultz,  
 N. Shenvi,  A. C. Simmonett,  K. S. Thanthiriwatte,  Q. Wu,  W. Zhang

 Please cite Q-Chem as follows:
 Y. Shao et al., Mol. Phys. 113, 184-215 (2015)
 DOI: 10.1080/00268976.2014.952696

 Q-Chem 4.4.1 for Intel X86 EM64T Linux

 Parts of Q-Chem use Armadillo 5.200.1 (Boston Tea Smuggler).
 http://arma.sourceforge.net/

 Q-Chem begins on Tue Mar  7 05:06:26 2017  

Host: nid01545
0

     Scratch files written to /dev/shm/eg_qchem/qchem60630//
 Parallel job on  1  processors

Checking the input file for inconsistencies... 	...done.

--------------------------------------------------------------
User input:
--------------------------------------------------------------
$molecule
 1  2
 S           1.81042700       -1.22909900       -0.13996800
 C           3.10211600       -0.18861200       -0.13982200
 C           2.74845300        1.15163900       -0.14006900
 C           1.39169900        1.31613900       -0.14029100
 C           0.68906700        0.11310500       -0.14015500
 H           0.90454800        2.27578700       -0.14040700
 C          -0.68906700       -0.11310500       -0.14015500
 S          -1.48300876       -0.76562366       -1.55537080
 C          -1.62503503        0.10540875        0.86840741
 C          -2.95245994       -0.72313422       -0.78726822
 C          -2.89875242       -0.23597330        0.50931964
 H          -3.76625471       -0.14707780        1.13520674
 H           4.10439600       -0.57731800       -0.13934700
 H           3.47107900        1.94537000       -0.13983300
 H          -3.83612334       -1.05707339       -1.30037775
 H          -1.36090533        0.50446828        1.83237182
$end


$rem
         jobtype = opt
        exchange = hf
           basis = cc-pvtz
  max_scf_cycles = 100
      mem_static = 6200
       mem_total = 62000
          method = mp2
$end


$opt
CONSTRAINT
tors 4 5 7 9 -70.0
ENDCONSTRAINT
$end

--------------------------------------------------------------
 Atom   8: ( -1.6534541325, -0.7295977173,  0.9400412485)
         ->( -1.6534541302, -0.7295977201,  0.9400412443)
 Atom  11: ( -2.8559774726,  0.6347584639, -0.8600354319)
         ->( -2.8559774741,  0.6347584695, -0.8600354227)
 Atom  16: ( -1.1573047714,  1.3042514775, -2.0132850301)
         ->( -1.1573047726,  1.3042514897, -2.0132850220)
 Atom  14: (  3.6631549841, -1.0849246115, -1.4059403629)
         ->(  3.6631549815, -1.0849246119, -1.4059403717)
 Atom  15: ( -4.0017416876, -0.3788993532,  0.7171761698)
         ->( -4.0017416875, -0.3788993608,  0.7171761733)
 ----------------------------------------------------------------
             Standard Nuclear Orientation (Angstroms)
    I     Atom           X                Y                Z
 ----------------------------------------------------------------
    1      S       1.6534541302     0.7295977201     0.9400412443
    2      C       3.0529026232     0.1431194188     0.2702197689
    3      C       2.8559774741    -0.6347584695    -0.8600354227
    4      C       1.5301413646    -0.7447640697    -1.1729237326
    5      C       0.6958949421    -0.0577607405    -0.2936957285
    6      H       1.1573047726    -1.3042514897    -2.0132850220
    7      C      -0.6958949392     0.0577607400    -0.2936957298
    8      S      -1.6534541302    -0.7295977201     0.9400412443
    9      C      -1.5301413599     0.7447640686    -1.1729237338
   10      C      -3.0529026270    -0.1431194184     0.2702197704
   11      C      -2.8559774741     0.6347584695    -0.8600354227
   12      H      -3.6631549815     1.0849246119    -1.4059403717
   13      H       4.0017416875     0.3788993608     0.7171761733
   14      H       3.6631549815    -1.0849246119    -1.4059403717
   15      H      -4.0017416875    -0.3788993608     0.7171761733
   16      H      -1.1573047726     1.3042514897    -2.0132850220
 ----------------------------------------------------------------
 Molecular Point Group                 C2    NOp =  2
 Largest Abelian Subgroup              C2    NOp =  2
 Nuclear Repulsion Energy =   640.2914449849 hartrees
 There are       43 alpha and       42 beta electrons
 Requested basis set is cc-pVTZ
 There are 140 shells and 392 basis functions

 Total QAlloc Memory Limit  62000 MB
 Mega-Array Size      6061 MB
 MEM_STATIC part      6200 MB
 A cutoff of  1.0D-11 yielded   8074 shell pairs
 There are     62934 function pairs (     82040 Cartesian)
 
 -------------------------------------------------------
 OpenMP Integral Computing Module                       
 Release: version 1.0, May 2013, Q-Chem Inc. Pittsburgh 
 -------------------------------------------------------
 Integral Job Info:
 Integral job number is                      11
 Integral operator is                         1
 short-range coefficients                     0
 long-range coefficients              100000000
 Omega coefficients                           0
 if combine SR and LR in K                    0
 Integral screening is                        0
 Integral computing path is                   2
 max size of driver memory is            800000
 size of driver memory is                776718
 size of scratch memory is             26248924
 max col of scratch BK array              10000
 max len of scratch array in speh3          662
 max len of scratch index in speh4           32
 max int batch size is                      520
 min int batch size is                       52
 fixed nKL is                                52
 max L of basis functions is                  3
 order of int derivative is                   0
 number of shells is                        140
 number of basis is                         448
 number of cartesian basis is               448
 number of contracted shell pairs          8074
 number of primitive shell pairs          28672
 maxK2 (contraction) of shell pair          121
 max number of K2 of shell pair               1
 max number of CS2 of shell pair           1064
 max number of PS2 of shell pair           3108
 mem total for path MDJ                  225820
 -------------------------------------------------------
 Smallest overlap matrix eigenvalue = 7.89E-05

 Scale SEOQF with 1.000000e-01/1.000000e+00/1.000000e-01

 Standard Electronic Orientation quadrupole field applied
 Nucleus-field energy     =     0.0000000316 hartrees
 Guess from superposition of atomic densities
 Warning:  Energy on first SCF cycle will be non-variational
 An unrestricted Hartree-Fock SCF calculation will be
 performed using Pulay DIIS extrapolation
 SCF converges when DIIS error is below 1.0E-08
 using 16 threads for integral computing 
 ---------------------------------------
  Cycle       Energy         DIIS Error
 ---------------------------------------
    1   -1106.1486346167      3.04E-02
    2   -1081.9533645667      2.40E-02
    3   -1094.6123423808      1.16E-02
    4   -1100.6398913936      5.50E-03
    5   -1101.1741826303      2.57E-03
    6   -1101.3162740904      4.22E-04
    7   -1101.3229009746      1.77E-04
    8   -1101.3253974671      5.55E-05
    9   -1101.3264180000      2.81E-05
   10   -1101.3270804464      2.13E-05
   11   -1101.3277277383      1.67E-05
   12   -1101.3284128120      1.42E-05
   13   -1101.3289259494      1.20E-05
   14   -1101.3292871672      9.19E-06
   15   -1101.3295267348      4.72E-06
   16   -1101.3295596256      2.20E-06
   17   -1101.3295639443      8.70E-07
   18   -1101.3295644828      3.25E-07
   19   -1101.3295645833      1.52E-07
   20   -1101.3295646206      6.02E-08
   21   -1101.3295646304      2.70E-08
   22   -1101.3295646330      1.98E-08
   23   -1101.3295646334      1.27E-08
   24   -1101.3295646334      1.15E-08
   25   -1101.3295646334      4.28E-09 Convergence criterion met
 ---------------------------------------
 <S^2> = 0.9862
 SCF time:  CPU 1127.12 s  wall 70.52 s
 SCF   energy in the final basis set = -1101.3295646334
 Total energy in the final basis set = -1101.3295646334
 
 Components of the MP2 correlation energy:
        aaaa  correlation energy =        -0.2345225666 au
        abab  correlation energy =        -1.3084356793 au
        bbbb  correlation energy =        -0.2141926235 au
        non-Brillouin singles    =        -0.0000000000 au

 Total  MP2   correlation energy =        -1.7571508694 au
        MP2         total energy =     -1103.0867155028 au

  Entering Z-vector solver.
   1         0           1      0.000537    0.000537
   2         0           1      0.000491    0.000491
   3         0           1      0.000387    0.000387
   4         0           1      0.000346    0.000346
   5         0           1      0.000157    0.000157
   6         0           1      0.000083    0.000083
   7         0           1      0.000046    0.000046
   8         0           1      0.000027    0.000027
   9         0           1      0.000014    0.000014
  10         0           1      0.000007    0.000007
  11         0           1      0.000003    0.000003
  12         0           1      0.000001    0.000001
  13         1           0      0.000000    0.000000    Roots Converged
 Warning:  Cannot save MP2 spin density
 
 --------------------------------------------------------------
             Orbital Energies (a.u.) and Symmetries
 --------------------------------------------------------------
 
 Alpha MOs, Unrestricted
 -- Occupied --                  
-92.161 -92.161 -11.474 -11.472 -11.451 -11.451 -11.431 -11.431
  1 B     1 A     2 A     2 B     3 B     3 A     4 B     4 A                  
-11.403 -11.403  -9.163  -9.163  -6.844  -6.844  -6.843  -6.843
  5 A     5 B     6 B     6 A     7 A     7 B     8 A     8 B                  
 -6.841  -6.841  -1.393  -1.363  -1.232  -1.186  -1.185  -1.129
  9 B     9 A    10 A    10 B    11 A    12 A    11 B    12 B                  
 -1.000  -0.949  -0.938  -0.905  -0.887  -0.822  -0.752  -0.750
 13 A    14 A    13 B    14 B    15 A    15 B    16 A    16 B                  
 -0.747  -0.737  -0.730  -0.703  -0.698  -0.659  -0.655  -0.549
 17 A    17 B    18 A    19 A    18 B    20 A    19 B    20 B                  
 -0.541  -0.511  -0.499
 21 A    21 B    22 A                                                          
 -- Virtual --                   
 -0.098  -0.069   0.002   0.011   0.017   0.023   0.029   0.037
 22 B    23 A    24 A    23 B    25 A    26 A    24 B    25 B                  
  0.046   0.056   0.072   0.084   0.094   0.105   0.156   0.174
 27 A    26 B    28 A    27 B    29 A    28 B    30 A    29 B                  
  0.196   0.200   0.205   0.219   0.231   0.236   0.259   0.264
 30 B    31 A    32 A    31 B    33 A    32 B    33 B    34 A                  
  0.278   0.289   0.291   0.302   0.314   0.314   0.323   0.327
 35 A    36 A    34 B    35 B    37 A    36 B    38 A    37 B                  
  0.349   0.356   0.369   0.371   0.388   0.388   0.409   0.412
 39 A    38 B    39 B    40 A    41 A    40 B    42 A    41 B                  
  0.429   0.430   0.433   0.442   0.455   0.458   0.458   0.466
 43 A    44 A    42 B    43 B    45 A    46 A    44 B    45 B                  
  0.467   0.485   0.491   0.514   0.517   0.524   0.537   0.565
 47 A    46 B    47 B    48 A    48 B    49 A    50 A    49 B                  
  0.584   0.590   0.622   0.626   0.633   0.640   0.685   0.690
 50 B    51 A    52 A    51 B    52 B    53 A    53 B    54 A                  
  0.701   0.703   0.716   0.734   0.737   0.763   0.766   0.778
 55 A    54 B    55 B    56 B    56 A    57 A    57 B    58 B                  
  0.799   0.819   0.839   0.845   0.862   0.875   0.889   0.898
 58 A    59 A    59 B    60 A    61 A    60 B    61 B    62 A                  
  0.928   0.936   0.957   0.959   0.992   0.995   1.003   1.016
 62 B    63 A    63 B    64 A    64 B    65 A    65 B    66 A                  
  1.027   1.037   1.056   1.056   1.072   1.076   1.124   1.126
 67 A    66 B    67 B    68 A    69 A    68 B    70 A    69 B                  
  1.143   1.147   1.157   1.204   1.216   1.232   1.233   1.265
 70 B    71 A    71 B    72 A    72 B    73 B    73 A    74 B                  
  1.267   1.292   1.303   1.333   1.333   1.347   1.364   1.381
 74 A    75 B    75 A    76 A    76 B    77 B    77 A    78 B                  
  1.386   1.393   1.400   1.421   1.424   1.441   1.457   1.482
 78 A    79 B    79 A    80 A    80 B    81 A    81 B    82 A                  
  1.508   1.514   1.520   1.555   1.570   1.579   1.611   1.654
 83 A    82 B    83 B    84 A    84 B    85 B    85 A    86 B                  
  1.668   1.700   1.717   1.725   1.738   1.751   1.760   1.790
 86 A    87 B    87 A    88 B    88 A    89 A    89 B    90 A                  
  1.793   1.833   1.855   1.891   1.910   1.943   1.944   1.983
 90 B    91 A    91 B    92 B    92 A    93 B    93 A    94 B                  
  1.995   2.020   2.025   2.031   2.053   2.067   2.083   2.091
 94 A    95 A    95 B    96 A    96 B    97 A    97 B    98 A                  
  2.118   2.134   2.135   2.210   2.257   2.265   2.285   2.299
 98 B    99 B    99 A   100 A   101 A   100 B   102 A   101 B                  
  2.328   2.334   2.341   2.350   2.363   2.374   2.386   2.424
102 B   103 B   103 A   104 A   104 B   105 A   105 B   106 B                  
  2.425   2.457   2.485   2.504   2.537   2.552   2.559   2.578
106 A   107 B   107 A   108 A   108 B   109 B   109 A   110 A                  
  2.597   2.609   2.611   2.625   2.632   2.685   2.715   2.718
110 B   111 A   111 B   112 A   112 B   113 A   114 A   113 B                  
  2.746   2.759   2.771   2.784   2.818   2.834   2.842   2.850
114 B   115 A   115 B   116 A   116 B   117 A   118 A   117 B                  
  2.858   2.873   2.896   2.967   2.976   3.004   3.010   3.031
118 B   119 A   119 B   120 B   120 A   121 B   121 A   122 A                  
  3.038   3.043   3.051   3.064   3.070   3.091   3.098   3.105
122 B   123 B   123 A   124 B   124 A   125 A   125 B   126 B                  
  3.113   3.143   3.152   3.154   3.160   3.190   3.198   3.204
126 A   127 A   127 B   128 A   128 B   129 B   129 A   130 A                  
  3.214   3.233   3.249   3.267   3.272   3.288   3.291   3.295
130 B   131 A   131 B   132 A   133 A   134 A   135 A   132 B                  
  3.307   3.321   3.330   3.348   3.349   3.350   3.359   3.371
133 B   134 B   136 A   135 B   137 A   136 B   138 A   137 B                  
  3.387   3.408   3.420   3.431   3.433   3.448   3.484   3.485
138 B   139 A   139 B   140 A   140 B   141 A   142 A   141 B                  
  3.513   3.537   3.549   3.553   3.573   3.587   3.590   3.619
142 B   143 A   144 A   143 B   145 A   146 A   144 B   145 B                  
  3.623   3.660   3.694   3.696   3.745   3.754   3.776   3.778
147 A   146 B   147 B   148 A   148 B   149 A   149 B   150 A                  
  3.791   3.810   3.820   3.841   3.858   3.866   3.884   3.889
150 B   151 A   151 B   152 A   153 A   152 B   153 B   154 A                  
  3.905   3.952   3.952   3.983   4.007   4.016   4.025   4.025
154 B   155 A   155 B   156 A   156 B   157 A   158 A   157 B                  
  4.050   4.051   4.069   4.087   4.096   4.130   4.133   4.154
159 A   158 B   159 B   160 A   160 B   161 B   161 A   162 A                  
  4.171   4.220   4.246   4.270   4.309   4.332   4.354   4.359
162 B   163 A   163 B   164 A   164 B   165 A   166 A   165 B                  
  4.364   4.370   4.422   4.445   4.480   4.504   4.505   4.516
167 A   166 B   168 A   167 B   169 A   170 A   168 B   169 B                  
  4.545   4.569   4.585   4.616   4.624   4.666   4.688   4.708
171 A   170 B   171 B   172 B   172 A   173 A   173 B   174 A                  
  4.744   4.774   4.838   4.847   4.864   4.898   4.906   4.927
174 B   175 A   176 A   175 B   176 B   177 A   178 A   177 B                  
  4.930   4.956   5.030   5.067   5.083   5.130   5.149   5.229
179 A   178 B   179 B   180 A   180 B   181 A   181 B   182 A                  
  5.238   5.254   5.257   5.315   5.404   5.421   5.490   5.512
182 B   183 B   183 A   184 A   184 B   185 A   185 B   186 A                  
  5.694   5.698   5.836   5.895   5.938   5.957   6.030   6.058
186 B   187 A   187 B   188 A   188 B   189 A   189 B   190 A                  
  6.089   6.377   6.392   6.555   6.619   9.349  10.786  11.859
190 B   191 A   191 B   192 A   192 B   193 A   193 B   194 A                  
 12.584  13.167  13.462  14.635  14.771
194 B   195 A   195 B   196 A   196 B                                          
 
 Beta MOs, Unrestricted
 -- Occupied --                  
-92.162 -92.162 -11.472 -11.471 -11.440 -11.440 -11.425 -11.425
  1 B     1 A     2 A     2 B     3 B     3 A     4 B     4 A                  
-11.409 -11.409  -9.165  -9.165  -6.845  -6.845  -6.845  -6.845
  5 B     5 A     6 B     6 A     7 A     7 B     8 A     8 B                  
 -6.844  -6.844  -1.380  -1.348  -1.218  -1.182  -1.177  -1.104
  9 B     9 A    10 A    10 B    11 A    12 A    11 B    12 B                  
 -0.991  -0.940  -0.926  -0.900  -0.885  -0.817  -0.749  -0.739
 13 A    14 A    13 B    14 B    15 A    15 B    16 A    17 A                  
 -0.738  -0.724  -0.721  -0.677  -0.668  -0.655  -0.651  -0.537
 16 B    17 B    18 A    18 B    19 A    20 A    19 B    21 A                  
 -0.530  -0.471
 20 B    21 B                                                                  
 -- Virtual --                   
 -0.212  -0.049  -0.028   0.009   0.015   0.021   0.032   0.039
 22 A    22 B    23 A    24 A    23 B    25 A    24 B    26 A                  
  0.049   0.051   0.063   0.072   0.087   0.097   0.107   0.158
 27 A    25 B    26 B    28 A    27 B    29 A    28 B    30 A                  
  0.177   0.198   0.204   0.207   0.223   0.232   0.237   0.266
 29 B    30 B    31 A    32 A    31 B    33 A    32 B    34 A                  
  0.266   0.288   0.294   0.300   0.309   0.313   0.321   0.328
 33 B    35 A    36 A    34 B    35 B    36 B    37 A    37 B                  
  0.331   0.354   0.365   0.382   0.387   0.396   0.398   0.419
 38 A    39 A    38 B    39 B    40 A    40 B    41 A    42 A                  
  0.420   0.434   0.437   0.439   0.446   0.457   0.463   0.464
 41 B    43 A    42 B    44 A    43 B    45 A    44 B    46 A                  
  0.472   0.474   0.489   0.498   0.516   0.520   0.528   0.545
 47 A    45 B    46 B    47 B    48 A    48 B    49 A    50 A                  
  0.567   0.589   0.592   0.626   0.628   0.634   0.641   0.687
 49 B    50 B    51 A    52 A    51 B    52 B    53 A    53 B                  
  0.698   0.704   0.708   0.721   0.739   0.742   0.767   0.767
 54 A    55 A    54 B    55 B    56 A    56 B    57 A    57 B                  
  0.780   0.804   0.825   0.844   0.847   0.865   0.878   0.893
 58 B    58 A    59 A    59 B    60 A    61 A    60 B    61 B                  
  0.900   0.931   0.943   0.963   0.964   0.995   0.998   1.005
 62 A    62 B    63 A    64 A    63 B    64 B    65 A    65 B                  
  1.021   1.030   1.041   1.058   1.059   1.075   1.080   1.129
 66 A    67 A    66 B    67 B    68 A    69 A    68 B    70 A                  
  1.131   1.144   1.152   1.162   1.209   1.221   1.240   1.241
 69 B    70 B    71 A    71 B    72 A    72 B    73 B    73 A                  
  1.268   1.275   1.294   1.307   1.335   1.337   1.354   1.363
 74 B    74 A    75 B    75 A    76 A    76 B    77 B    77 A                  
  1.382   1.390   1.397   1.404   1.424   1.424   1.444   1.463
 78 B    78 A    79 B    79 A    80 A    80 B    81 A    81 B                  
  1.486   1.510   1.517   1.522   1.560   1.574   1.584   1.611
 82 A    83 A    82 B    83 B    84 A    84 B    85 B    85 A                  
  1.653   1.668   1.701   1.718   1.725   1.739   1.751   1.762
 86 B    86 A    87 B    87 A    88 B    88 A    89 A    89 B                  
  1.793   1.795   1.833   1.855   1.893   1.910   1.944   1.945
 90 B    90 A    91 A    91 B    92 B    92 A    93 B    93 A                  
  1.984   1.997   2.019   2.026   2.033   2.054   2.069   2.085
 94 B    94 A    95 A    95 B    96 A    96 B    97 A    97 B                  
  2.104   2.131   2.137   2.139   2.214   2.256   2.262   2.288
 98 A    98 B    99 B    99 A   100 A   101 A   100 B   102 A                  
  2.305   2.334   2.339   2.346   2.353   2.367   2.390   2.395
101 B   102 B   103 B   103 A   104 A   104 B   105 A   105 B                  
  2.432   2.432   2.460   2.491   2.507   2.538   2.557   2.565
106 B   106 A   107 B   107 A   108 A   108 B   109 B   109 A                  
  2.581   2.607   2.616   2.619   2.630   2.634   2.694   2.718
110 A   110 B   111 A   111 B   112 A   112 B   113 A   114 A                  
  2.726   2.752   2.766   2.775   2.791   2.820   2.837   2.850
113 B   114 B   115 A   115 B   116 A   116 B   117 A   118 A                  
  2.856   2.865   2.874   2.899   2.977   2.978   3.011   3.011
117 B   118 B   119 A   119 B   120 B   120 A   121 B   121 A                  
  3.038   3.041   3.044   3.057   3.070   3.077   3.099   3.107
122 A   122 B   123 B   123 A   124 B   124 A   125 A   125 B                  
  3.111   3.119   3.150   3.160   3.160   3.163   3.193   3.201
126 B   126 A   127 A   127 B   128 A   128 B   129 B   129 A                  
  3.206   3.215   3.239   3.252   3.271   3.275   3.289   3.297
130 A   130 B   131 A   131 B   132 A   133 A   134 A   135 A                  
  3.299   3.313   3.333   3.346   3.351   3.353   3.357   3.363
132 B   133 B   134 B   136 A   135 B   137 A   136 B   138 A                  
  3.379   3.389   3.411   3.423   3.435   3.438   3.452   3.487
137 B   138 B   139 A   139 B   140 A   140 B   141 A   141 B                  
  3.488   3.518   3.542   3.552   3.558   3.576   3.592   3.595
142 A   142 B   143 A   144 A   143 B   145 A   146 A   144 B                  
  3.621   3.628   3.664   3.697   3.700   3.747   3.755   3.777
145 B   147 A   146 B   147 B   148 A   148 B   149 A   149 B                  
  3.782   3.796   3.812   3.825   3.843   3.861   3.868   3.887
150 A   150 B   151 A   151 B   152 A   153 A   152 B   153 B                  
  3.893   3.907   3.955   3.955   3.984   4.010   4.018   4.026
154 A   154 B   155 A   155 B   156 A   156 B   157 A   157 B                  
  4.028   4.051   4.053   4.072   4.089   4.098   4.131   4.134
158 A   159 A   158 B   159 B   160 A   160 B   161 B   161 A                  
  4.155   4.173   4.221   4.246   4.271   4.311   4.334   4.355
162 A   162 B   163 A   163 B   164 A   164 B   165 A   166 A                  
  4.360   4.365   4.371   4.427   4.447   4.482   4.506   4.508
165 B   167 A   166 B   168 A   167 B   169 A   170 A   168 B                  
  4.520   4.549   4.570   4.586   4.618   4.625   4.667   4.689
169 B   171 A   170 B   171 B   172 B   172 A   173 A   173 B                  
  4.710   4.746   4.777   4.841   4.849   4.867   4.900   4.907
174 A   174 B   175 A   176 A   175 B   176 B   177 A   178 A                  
  4.931   4.932   4.958   5.031   5.070   5.087   5.133   5.150
177 B   179 A   178 B   179 B   180 A   180 B   181 A   181 B                  
  5.230   5.239   5.254   5.258   5.316   5.405   5.423   5.491
182 A   182 B   183 B   183 A   184 A   184 B   185 A   185 B                  
  5.514   5.695   5.699   5.837   5.896   5.939   5.958   6.031
186 A   186 B   187 A   187 B   188 A   188 B   189 A   189 B                  
  6.058   6.089   6.378   6.393   6.555   6.620   9.351  10.790
190 A   190 B   191 A   191 B   192 A   192 B   193 A   193 B                  
 11.863  12.589  13.170  13.463  14.635  14.773
194 A   194 B   195 A   195 B   196 A   196 B                                  
 --------------------------------------------------------------
 
          Ground-State Mulliken Net Atomic Charges

     Atom                 Charge (a.u.)    Spin (a.u.)
  --------------------------------------------------------
      1 S                     0.285580      -0.020387
      2 C                    -0.116734      -0.179685
      3 C                    -0.151407       0.585006
      4 C                    -0.128151      -0.422388
      5 C                    -0.076706       0.525629
      6 H                     0.219700       0.030491
      7 C                    -0.076707       0.525629
      8 S                     0.285581      -0.020387
      9 C                    -0.128153      -0.422388
     10 C                    -0.116737      -0.179685
     11 C                    -0.151405       0.585006
     12 H                     0.225009      -0.041691
     13 H                     0.242709       0.023024
     14 H                     0.225009      -0.041691
     15 H                     0.242710       0.023024
     16 H                     0.219701       0.030491
  --------------------------------------------------------
  Sum of atomic charges =     1.000000
  Sum of spin   charges =     1.000000

 -----------------------------------------------------------------
                    Cartesian Multipole Moments
 -----------------------------------------------------------------
    Charge (ESU x 10^10)
                 4.8032
    Dipole Moment (Debye)
         X       0.0000      Y      -0.0000      Z      -0.5840
       Tot       0.5840
    Quadrupole Moments (Debye-Ang)
        XX     -22.2076     XY      -1.2912     YY     -67.5107
        XZ       0.0000     YZ       0.0000     ZZ     -61.2167
    Octopole Moments (Debye-Ang^2)
       XXX       0.0000    XXY       0.0000    XYY      -0.0000
       YYY       0.0000    XXZ       5.2871    XYZ      18.7216
       YYZ      -3.1267    XZZ      -0.0000    YZZ       0.0000
       ZZZ      -3.2393
    Hexadecapole Moments (Debye-Ang^3)
      XXXX   -1257.8703   XXXY      -9.9590   XXYY    -350.1566
      XYYY       4.6119   YYYY    -244.4084   XXXZ       0.0000
      XXYZ       0.0000   XYYZ       0.0000   YYYZ      -0.0000
      XXZZ    -336.8228   XYZZ     -13.8887   YYZZ     -90.6138
      XZZZ       0.0000   YZZZ      -0.0000   ZZZZ    -373.9179
 -----------------------------------------------------------------
 DrvMan is completing analytic gradient of the MP2 energy
 MP2 relaxed dipole moment
            1
    1   0.0000001
    2  -0.0000000
    3  -0.2297686
	Magnitude:	 0.230 au	 0.584 Debye
 MP2 energy read as -1103.086716
 Full Analytical Gradient of MP2 Energy (in au.)
             1             2             3             4             5
    1   -0.00724047    0.00575826   -0.00358587    0.00759270   -0.03286884
    2    0.01033803   -0.00237255    0.00123553   -0.01276501    0.01075895
    3   -0.00248901   -0.00380382   -0.00373610    0.00208329    0.00747444
             6             7             8             9            10
    1    0.00137824    0.03286884    0.00724047   -0.00759270   -0.00575827
    2   -0.00018886   -0.01075895   -0.01033803    0.01276501    0.00237255
    3   -0.00085586    0.00747444   -0.00248901    0.00208329   -0.00380382
            11            12            13            14            15
    1    0.00358588    0.00017475   -0.00086459   -0.00017475    0.00086459
    2   -0.00123552   -0.00149860   -0.00361959    0.00149860    0.00361959
    3   -0.00373610   -0.00119606    0.00252312   -0.00119606    0.00252312
            16
    1   -0.00137824
    2    0.00018886
    3   -0.00085586
 Gradient time:  CPU 1.56 s  wall 0.10 s
 Geometry Optimization Parameters
   NAtoms,    NIC,     NZ,  NCons,   NDum,   NFix, NCnnct, MaxDiis
       16     111       0       1       0       0       0       0


** CONSTRAINED OPTIMIZATION IN DELOCALIZED INTERNAL COORDINATES **
   Searching for a Minimum

   Optimization Cycle:   1

                       Coordinates (Angstroms)
     ATOM                X               Y               Z
      1  S         1.6534541302    0.7295977201    0.9400412443
      2  C         3.0529026251    0.1431194186    0.2702197696
      3  C         2.8559774741   -0.6347584695   -0.8600354227
      4  C         1.5301413622   -0.7447640691   -1.1729237332
      5  C         0.6958949406   -0.0577607403   -0.2936957291
      6  H         1.1573047726   -1.3042514897   -2.0132850220
      7  C        -0.6958949406    0.0577607403   -0.2936957291
      8  S        -1.6534541302   -0.7295977201    0.9400412443
      9  C        -1.5301413622    0.7447640691   -1.1729237332
     10  C        -3.0529026251   -0.1431194186    0.2702197696
     11  C        -2.8559774741    0.6347584695   -0.8600354227
     12  H        -3.6631549815    1.0849246119   -1.4059403717
     13  H         4.0017416875    0.3788993608    0.7171761733
     14  H         3.6631549815   -1.0849246119   -1.4059403717
     15  H        -4.0017416875   -0.3788993608    0.7171761733
     16  H        -1.1573047726    1.3042514897   -2.0132850220
   Point Group: c2    Number of degrees of freedom:    22


   Energy is  -1103.086715503

              Constraints and their Current Values
                                        Value     Constraint
   Dihedral:        4   5   7   9      -70.000      -70.000

 Attempting to Generate Delocalized Internal Coordinates

 21 Hessian modes will be used to form the next step
  Hessian Eigenvalues:
     0.045000    0.045000    0.045000    0.045000    0.045000    0.045000
     0.160000    0.160000    0.160000    0.221335    0.237679    0.250000
     0.299411    0.364554    0.366034    0.368031    0.392996    0.445237
     0.461927    0.467905    0.501257

 Minimum Search - Taking Simple RFO Step
 Searching for Lamda that Minimizes Along All modes
 Value Taken    Lamda =  -0.00676491
 Step Taken.  Stepsize is  0.285823

                             Maximum     Tolerance    Cnvgd?
         Gradient           0.016878      0.000300      NO
         Displacement       0.188127      0.001200      NO
         Energy change     *********      0.000001      NO


 New Cartesian Coordinates Obtained by Inverse Iteration

 Displacement from previous Coordinates is:  0.306998
 ----------------------------------------------------------------
             Standard Nuclear Orientation (Angstroms)
    I     Atom           X                Y                Z
 ----------------------------------------------------------------
    1      S       1.6609531663     0.6596494819     0.9703284316
    2      C       3.0643261262     0.1300352975     0.2857695676
    3      C       2.8754222730    -0.6389467575    -0.8511719042
    4      C       1.5495571247    -0.7238693594    -1.1933588953
    5      C       0.7135474661    -0.0514052198    -0.3212547118
    6      H       1.1756689442    -1.2647714438    -2.0448205312
    7      C      -0.7135474661     0.0514052198    -0.3212547118
    8      S      -1.6609531663    -0.6596494819     0.9703284316
    9      C      -1.5495571247     0.7238693594    -1.1933588953
   10      C      -3.0643261262    -0.1300352975     0.2857695676
   11      C      -2.8754222730     0.6389467575    -0.8511719042
   12      H      -3.6880058720     1.0870965234    -1.3911041176
   13      H       4.0115489493     0.3852680856     0.7271690693
   14      H       3.6880058720    -1.0870965234    -1.3911041176
   15      H      -4.0115489493    -0.3852680856     0.7271690693
   16      H      -1.1756689442     1.2647714438    -2.0448205312
 ----------------------------------------------------------------
 Molecular Point Group                 C2    NOp =  2
 Largest Abelian Subgroup              C2    NOp =  2
 Nuclear Repulsion Energy =   639.4639336300 hartrees
 There are       43 alpha and       42 beta electrons
 Applying Cartesian multipole field
    Component          Value
    ---------          -----
     (2,0,0)        1.00000E-11
     (0,2,0)        2.00000E-10
     (0,0,2)       -3.00000E-11
 Nucleus-field energy     =     0.0000000288 hartrees
 Requested basis set is cc-pVTZ
 There are 140 shells and 392 basis functions
 A cutoff of  1.0D-11 yielded   8053 shell pairs
 There are     62709 function pairs (     81767 Cartesian)
 Smallest overlap matrix eigenvalue = 8.89E-05
 Guess MOs from SCF MO coefficient file
 Reading MOs from coefficient file
 Reading MOs from coefficient file
 An unrestricted Hartree-Fock SCF calculation will be
 performed using Pulay DIIS extrapolation
 SCF converges when DIIS error is below 1.0E-08
 Geometry optimization detected.  Setting ReadMinima to 0
 Setting SaveMinima to 0
 using 16 threads for integral computing 
 ---------------------------------------
  Cycle       Energy         DIIS Error
 ---------------------------------------
    1   -1101.3382467309      9.82E-04
    2   -1101.3324938996      1.08E-04
    3   -1101.3330091185      4.55E-05
    4   -1101.3330975517      2.09E-05
    5   -1101.3331261515      7.23E-06
    6   -1101.3331317463      3.61E-06
    7   -1101.3331346079      1.75E-06
    8   -1101.3331369739      1.25E-06
    9   -1101.3331385229      9.74E-07
   10   -1101.3331401213      7.85E-07
   11   -1101.3331415742      5.19E-07
   12   -1101.3331423521      2.73E-07
   13   -1101.3331424931      1.25E-07
   14   -1101.3331425130      6.88E-08
   15   -1101.3331425207      4.36E-08
   16   -1101.3331425248      2.11E-08
   17   -1101.3331425252      9.41E-09 Convergence criterion met
 ---------------------------------------
 <S^2> = 0.9642
 SCF time:  CPU 1321.48 s  wall 82.66 s
 SCF   energy in the final basis set = -1101.3331425252
 Total energy in the final basis set = -1101.3331425252
 
 Components of the MP2 correlation energy:
        aaaa  correlation energy =        -0.2341184789 au
        abab  correlation energy =        -1.3088373160 au
        bbbb  correlation energy =        -0.2147231870 au
        non-Brillouin singles    =        -0.0000000000 au

 Total  MP2   correlation energy =        -1.7576789819 au
        MP2         total energy =     -1103.0908215071 au

  Entering Z-vector solver.
   1         0           1      0.000523    0.000523
   2         0           1      0.000474    0.000474
   3         0           1      0.000375    0.000375
   4         0           1      0.000336    0.000336
   5         0           1      0.000159    0.000159
   6         0           1      0.000087    0.000087
   7         0           1      0.000049    0.000049
   8         0           1      0.000029    0.000029
   9         0           1      0.000015    0.000015
  10         0           1      0.000007    0.000007
  11         0           1      0.000003    0.000003
  12         0           1      0.000001    0.000001
  13         1           0      0.000000    0.000000    Roots Converged
 Warning:  Cannot save MP2 spin density
 
 --------------------------------------------------------------
             Orbital Energies (a.u.) and Symmetries
 --------------------------------------------------------------
 
 Alpha MOs, Unrestricted
 -- Occupied --                  
-92.160 -92.160 -11.476 -11.476 -11.451 -11.451 -11.431 -11.431
  1 B     1 A     2 A     2 B     3 B     3 A     4 B     4 A                  
-11.405 -11.405  -9.163  -9.163  -6.843  -6.843  -6.843  -6.843
  5 A     5 B     6 B     6 A     7 B     7 A     8 A     8 B                  
 -6.841  -6.841  -1.393  -1.365  -1.229  -1.186  -1.185  -1.130
  9 B     9 A    10 A    10 B    11 A    11 B    12 A    12 B                  
 -0.995  -0.951  -0.938  -0.905  -0.886  -0.824  -0.752  -0.750
 13 A    14 A    13 B    14 B    15 A    15 B    16 B    16 A                  
 -0.747  -0.737  -0.729  -0.707  -0.698  -0.658  -0.652  -0.556
 17 A    17 B    18 A    19 A    18 B    20 A    19 B    20 B                  
 -0.540  -0.511  -0.496
 21 A    21 B    22 A                                                          
 -- Virtual --                   
 -0.096  -0.067   0.002   0.014   0.017   0.026   0.031   0.034
 22 B    23 A    24 A    23 B    25 A    26 A    24 B    25 B                  
  0.045   0.056   0.072   0.085   0.090   0.108   0.155   0.177
 27 A    26 B    28 A    27 B    29 A    28 B    30 A    29 B                  
  0.194   0.199   0.203   0.218   0.230   0.236   0.257   0.264
 30 B    31 A    32 A    31 B    33 A    32 B    33 B    34 A                  
  0.279   0.289   0.291   0.300   0.318   0.318   0.326   0.329
 35 A    36 A    34 B    35 B    37 A    36 B    38 A    37 B                  
  0.350   0.356   0.369   0.370   0.382   0.388   0.408   0.411
 39 A    38 B    39 B    40 A    40 B    41 A    42 A    41 B                  
  0.427   0.432   0.435   0.436   0.456   0.457   0.458   0.464
 43 A    42 B    44 A    43 B    44 B    45 A    46 A    45 B                  
  0.467   0.483   0.495   0.514   0.514   0.527   0.540   0.560
 47 A    46 B    47 B    48 A    48 B    49 A    50 A    49 B                  
  0.584   0.587   0.623   0.625   0.634   0.640   0.683   0.687
 50 B    51 A    52 A    51 B    53 A    52 B    53 B    54 A                  
  0.699   0.706   0.721   0.730   0.737   0.756   0.763   0.779
 55 A    54 B    55 B    56 B    56 A    57 A    57 B    58 B                  
  0.795   0.823   0.827   0.844   0.863   0.873   0.895   0.902
 58 A    59 A    59 B    60 A    61 A    60 B    61 B    62 A                  
  0.927   0.940   0.959   0.963   0.990   0.995   0.997   1.018
 62 B    63 A    63 B    64 A    64 B    65 A    65 B    66 A                  
  1.024   1.035   1.059   1.061   1.067   1.075   1.122   1.123
 67 A    66 B    68 A    67 B    68 B    69 A    69 B    70 A                  
  1.139   1.141   1.156   1.200   1.216   1.228   1.230   1.264
 70 B    71 A    71 B    72 A    72 B    73 A    73 B    74 A                  
  1.267   1.293   1.301   1.331   1.334   1.345   1.364   1.380
 74 B    75 B    75 A    76 B    76 A    77 B    77 A    78 B                  
  1.382   1.392   1.401   1.418   1.420   1.440   1.459   1.488
 78 A    79 A    79 B    80 A    80 B    81 A    81 B    82 A                  
  1.503   1.510   1.517   1.548   1.576   1.584   1.611   1.653
 83 A    82 B    83 B    84 A    84 B    85 B    85 A    86 B                  
  1.676   1.702   1.706   1.718   1.739   1.747   1.757   1.787
 86 A    87 B    87 A    88 B    88 A    89 A    89 B    90 A                  
  1.791   1.821   1.858   1.891   1.913   1.931   1.947   1.987
 90 B    91 A    91 B    92 B    92 A    93 B    93 A    94 A                  
  1.994   2.017   2.023   2.029   2.061   2.062   2.076   2.099
 94 B    95 A    95 B    96 A    96 B    97 A    97 B    98 A                  
  2.118   2.130   2.134   2.218   2.262   2.268   2.280   2.296
 98 B    99 A    99 B   100 A   101 A   100 B   102 A   101 B                  
  2.320   2.330   2.336   2.344   2.369   2.375   2.382   2.421
102 B   103 B   103 A   104 A   104 B   105 A   105 B   106 B                  
  2.424   2.451   2.478   2.506   2.542   2.557   2.563   2.578
106 A   107 B   107 A   108 A   108 B   109 A   109 B   110 A                  
  2.599   2.610   2.611   2.631   2.638   2.687   2.716   2.721
110 B   111 A   111 B   112 B   112 A   113 A   114 A   113 B                  
  2.738   2.750   2.769   2.785   2.811   2.832   2.841   2.849
114 B   115 A   115 B   116 A   116 B   117 A   118 A   117 B                  
  2.851   2.861   2.899   2.969   2.971   3.005   3.007   3.030
118 B   119 A   119 B   120 B   120 A   121 A   121 B   122 B                  
  3.030   3.041   3.051   3.065   3.070   3.090   3.093   3.099
122 A   123 B   123 A   124 B   124 A   125 A   125 B   126 B                  
  3.118   3.147   3.156   3.161   3.166   3.181   3.185   3.198
126 A   127 B   127 A   128 A   128 B   129 B   129 A   130 A                  
  3.215   3.236   3.256   3.256   3.268   3.283   3.294   3.295
130 B   131 A   132 A   131 B   133 A   134 A   132 B   135 A                  
  3.298   3.323   3.330   3.342   3.343   3.357   3.363   3.376
133 B   134 B   136 A   135 B   137 A   136 B   138 A   137 B                  
  3.383   3.411   3.412   3.429   3.434   3.445   3.470   3.479
138 B   139 B   139 A   140 A   140 B   141 A   142 A   141 B                  
  3.512   3.537   3.542   3.545   3.572   3.589   3.594   3.617
142 B   143 A   144 A   143 B   145 A   146 A   144 B   145 B                  
  3.621   3.660   3.698   3.702   3.736   3.748   3.769   3.778
147 A   146 B   147 B   148 A   148 B   149 A   149 B   150 A                  
  3.785   3.806   3.813   3.841   3.860   3.864   3.886   3.889
150 B   151 A   151 B   152 A   153 A   152 B   153 B   154 A                  
  3.914   3.949   3.952   3.975   4.003   4.006   4.023   4.026
154 B   155 B   155 A   156 A   156 B   157 A   157 B   158 A                  
  4.045   4.051   4.058   4.078   4.094   4.129   4.130   4.158
159 A   158 B   159 B   160 A   160 B   161 A   161 B   162 A                  
  4.172   4.208   4.243   4.258   4.320   4.324   4.347   4.357
162 B   163 A   163 B   164 A   164 B   165 A   166 A   165 B                  
  4.363   4.366   4.422   4.439   4.471   4.502   4.502   4.505
167 A   166 B   168 A   167 B   169 A   170 A   168 B   169 B                  
  4.543   4.567   4.589   4.619   4.619   4.646   4.685   4.703
171 A   170 B   171 B   172 B   172 A   173 A   173 B   174 A                  
  4.742   4.768   4.825   4.826   4.862   4.894   4.900   4.924
174 B   175 A   176 A   175 B   176 B   177 A   178 A   179 A                  
  4.926   4.945   5.018   5.061   5.073   5.121   5.149   5.225
177 B   178 B   179 B   180 A   180 B   181 A   181 B   182 A                  
  5.234   5.250   5.252   5.311   5.409   5.422   5.486   5.510
182 B   183 A   183 B   184 A   184 B   185 A   185 B   186 A                  
  5.675   5.694   5.833   5.883   5.934   5.960   6.034   6.050
186 B   187 A   187 B   188 A   188 B   189 A   189 B   190 A                  
  6.109   6.385   6.401   6.542   6.613   9.334  10.632  11.863
190 B   191 A   191 B   192 A   192 B   193 A   193 B   194 A                  
 12.275  13.214  13.365  14.624  14.737
194 B   195 A   195 B   196 A   196 B                                          
 
 Beta MOs, Unrestricted
 -- Occupied --                  
-92.161 -92.161 -11.475 -11.474 -11.440 -11.440 -11.425 -11.425
  1 B     1 A     2 A     2 B     3 B     3 A     4 B     4 A                  
-11.410 -11.410  -9.164  -9.164  -6.845  -6.845  -6.844  -6.844
  5 B     5 A     6 B     6 A     7 A     7 B     8 A     8 B                  
 -6.843  -6.843  -1.380  -1.351  -1.213  -1.183  -1.177  -1.108
  9 B     9 A    10 A    10 B    11 A    12 A    11 B    12 B                  
 -0.986  -0.942  -0.925  -0.900  -0.884  -0.819  -0.747  -0.741
 13 A    14 A    13 B    14 B    15 A    15 B    16 A    17 A                  
 -0.740  -0.723  -0.720  -0.679  -0.667  -0.656  -0.649  -0.535
 16 B    17 B    18 A    18 B    19 A    20 A    19 B    21 A                  
 -0.529  -0.474
 20 B    21 B                                                                  
 -- Virtual --                   
 -0.212  -0.048  -0.028   0.010   0.018   0.022   0.034   0.041
 22 A    22 B    23 A    24 A    23 B    25 A    24 B    26 A                  
  0.048   0.048   0.063   0.073   0.088   0.094   0.110   0.157
 25 B    27 A    26 B    28 A    27 B    29 A    28 B    30 A                  
  0.181   0.195   0.203   0.206   0.222   0.231   0.237   0.264
 29 B    30 B    31 A    32 A    31 B    33 A    32 B    33 B                  
  0.267   0.288   0.293   0.299   0.310   0.316   0.324   0.329
 34 A    35 A    36 A    34 B    35 B    36 B    37 A    37 B                  
  0.333   0.355   0.365   0.379   0.388   0.392   0.398   0.418
 38 A    39 A    38 B    39 B    40 A    40 B    41 A    42 A                  
  0.419   0.436   0.437   0.439   0.439   0.458   0.462   0.465
 41 B    42 B    43 A    44 A    43 B    45 A    44 B    46 A                  
  0.472   0.473   0.487   0.502   0.516   0.518   0.531   0.548
 47 A    45 B    46 B    47 B    48 A    48 B    49 A    50 A                  
  0.563   0.588   0.589   0.626   0.627   0.635   0.642   0.685
 49 B    51 A    50 B    52 A    51 B    53 A    52 B    53 B                  
  0.695   0.701   0.711   0.727   0.738   0.739   0.759   0.763
 54 A    55 A    54 B    55 B    56 B    56 A    57 A    57 B                  
  0.781   0.800   0.828   0.832   0.845   0.867   0.876   0.899
 58 B    58 A    59 A    59 B    60 A    61 A    60 B    61 B                  
  0.904   0.930   0.946   0.966   0.966   0.992   0.998   1.001
 62 A    62 B    63 A    63 B    64 A    64 B    65 A    65 B                  
  1.022   1.028   1.038   1.062   1.062   1.071   1.079   1.126
 66 A    67 A    66 B    67 B    68 A    68 B    69 A    70 A                  
  1.126   1.141   1.146   1.162   1.204   1.221   1.236   1.237
 69 B    70 B    71 A    71 B    72 A    72 B    73 A    73 B                  
  1.270   1.273   1.296   1.305   1.334   1.337   1.353   1.364
 74 B    74 A    75 B    75 A    76 B    76 A    77 B    77 A                  
  1.381   1.386   1.396   1.405   1.421   1.421   1.442   1.464
 78 B    78 A    79 A    79 B    80 A    80 B    81 A    81 B                  
  1.492   1.506   1.512   1.519   1.552   1.579   1.588   1.612
 82 A    83 A    82 B    83 B    84 A    84 B    85 B    85 A                  
  1.652   1.678   1.703   1.707   1.719   1.739   1.748   1.758
 86 B    86 A    87 B    87 A    88 B    88 A    89 A    89 B                  
  1.790   1.792   1.822   1.858   1.893   1.913   1.933   1.948
 90 B    90 A    91 A    91 B    92 B    92 A    93 B    93 A                  
  1.989   1.995   2.016   2.024   2.030   2.062   2.065   2.078
 94 A    94 B    95 A    95 B    96 A    96 B    97 A    97 B                  
  2.113   2.131   2.133   2.137   2.223   2.260   2.265   2.284
 98 A    98 B    99 A    99 B   100 A   101 A   100 B   102 A                  
  2.304   2.323   2.332   2.339   2.346   2.372   2.391   2.394
101 B   102 B   103 B   103 A   104 A   104 B   105 A   105 B                  
  2.429   2.432   2.454   2.483   2.508   2.544   2.563   2.568
106 B   106 A   107 B   107 A   108 A   108 B   109 A   109 B                  
  2.581   2.609   2.616   2.617   2.636   2.644   2.697   2.719
110 A   110 B   111 B   111 A   112 B   112 A   113 A   114 A                  
  2.727   2.744   2.757   2.773   2.792   2.813   2.835   2.849
113 B   114 B   115 A   115 B   116 A   116 B   117 A   118 A                  
  2.855   2.858   2.863   2.902   2.974   2.978   3.007   3.014
117 B   118 B   119 A   119 B   120 A   120 B   121 A   121 B                  
  3.034   3.037   3.042   3.055   3.071   3.077   3.094   3.103
122 B   122 A   123 B   123 A   124 B   124 A   125 A   125 B                  
  3.104   3.125   3.155   3.163   3.167   3.169   3.184   3.189
126 B   126 A   127 B   127 A   128 A   128 B   129 B   129 A                  
  3.200   3.218   3.240   3.260   3.261   3.272   3.285   3.298
130 A   130 B   131 A   131 B   132 A   133 A   134 A   135 A                  
  3.298   3.303   3.335   3.342   3.345   3.350   3.362   3.368
132 B   133 B   134 B   136 A   135 B   137 A   136 B   138 A                  
  3.382   3.387   3.415   3.415   3.433   3.440   3.448   3.473
137 B   138 B   139 A   139 B   140 A   140 B   141 A   142 A                  
  3.481   3.517   3.541   3.547   3.550   3.577   3.592   3.598
141 B   142 B   143 A   144 A   143 B   145 A   146 A   144 B                  
  3.620   3.625   3.664   3.701   3.706   3.739   3.749   3.770
145 B   147 A   146 B   147 B   148 A   148 B   149 A   149 B                  
  3.782   3.790   3.809   3.818   3.844   3.864   3.866   3.889
150 A   150 B   151 A   151 B   152 A   153 A   152 B   153 B                  
  3.893   3.916   3.952   3.955   3.976   4.006   4.007   4.024
154 A   154 B   155 B   155 A   156 A   156 B   157 A   157 B                  
  4.029   4.047   4.053   4.061   4.079   4.095   4.130   4.131
158 A   159 A   158 B   159 B   160 A   160 B   161 A   161 B                  
  4.159   4.174   4.210   4.243   4.260   4.322   4.326   4.348
162 A   162 B   163 A   163 B   164 A   164 B   165 A   166 A                  
  4.358   4.365   4.367   4.426   4.440   4.473   4.503   4.505
165 B   167 A   166 B   168 A   167 B   169 A   170 A   168 B                  
  4.507   4.546   4.568   4.590   4.620   4.621   4.647   4.686
169 B   171 A   170 B   171 B   172 A   172 B   173 A   173 B                  
  4.704   4.743   4.770   4.828   4.828   4.865   4.895   4.901
174 A   174 B   175 A   176 A   175 B   176 B   177 A   178 A                  
  4.925   4.928   4.948   5.020   5.064   5.078   5.124   5.151
179 A   177 B   178 B   179 B   180 A   180 B   181 A   181 B                  
  5.227   5.235   5.251   5.253   5.311   5.410   5.423   5.487
182 A   182 B   183 A   183 B   184 A   184 B   185 A   185 B                  
  5.511   5.676   5.694   5.834   5.883   5.935   5.961   6.035
186 A   186 B   187 A   187 B   188 A   188 B   189 A   189 B                  
  6.050   6.109   6.386   6.402   6.543   6.614   9.336  10.636
190 A   190 B   191 A   191 B   192 A   192 B   193 A   193 B                  
 11.867  12.280  13.217  13.367  14.625  14.739
194 A   194 B   195 A   195 B   196 A   196 B                                  
 --------------------------------------------------------------
 
          Ground-State Mulliken Net Atomic Charges

     Atom                 Charge (a.u.)    Spin (a.u.)
  --------------------------------------------------------
      1 S                     0.282370      -0.015038
      2 C                    -0.116363      -0.176830
      3 C                    -0.149247       0.595642
      4 C                    -0.132926      -0.419790
      5 C                    -0.072382       0.505889
      6 H                     0.220152       0.029698
      7 C                    -0.072382       0.505888
      8 S                     0.282370      -0.015038
      9 C                    -0.132927      -0.419790
     10 C                    -0.116363      -0.176830
     11 C                    -0.149247       0.595642
     12 H                     0.225045      -0.041733
     13 H                     0.243352       0.022162
     14 H                     0.225045      -0.041733
     15 H                     0.243352       0.022162
     16 H                     0.220152       0.029698
  --------------------------------------------------------
  Sum of atomic charges =     1.000000
  Sum of spin   charges =     1.000000

 -----------------------------------------------------------------
                    Cartesian Multipole Moments
 -----------------------------------------------------------------
    Charge (ESU x 10^10)
                 4.8032
    Dipole Moment (Debye)
         X       0.0000      Y      -0.0000      Z      -0.4757
       Tot       0.4757
    Quadrupole Moments (Debye-Ang)
        XX     -21.5462     XY      -1.4880     YY     -68.0344
        XZ      -0.0000     YZ       0.0000     ZZ     -61.0015
    Octopole Moments (Debye-Ang^2)
       XXX       0.0000    XXY      -0.0000    XYY       0.0000
       YYY      -0.0000    XXZ       5.3835    XYZ      18.4322
       YYZ      -3.6612    XZZ       0.0000    YZZ      -0.0000
       ZZZ      -4.2907
    Hexadecapole Moments (Debye-Ang^3)
      XXXX   -1263.8678   XXXY      -1.1449   XXYY    -350.8856
      XYYY      13.3025   YYYY    -228.9175   XXXZ      -0.0000
      XXYZ       0.0000   XYYZ      -0.0000   YYYZ       0.0000
      XXZZ    -341.9403   XYZZ     -10.7084   YYZZ     -91.1474
      XZZZ      -0.0000   YZZZ       0.0000   ZZZZ    -385.1249
 -----------------------------------------------------------------
 DrvMan is completing analytic gradient of the MP2 energy
 MP2 relaxed dipole moment
            1
    1   0.0000005
    2  -0.0000000
    3  -0.1871386
	Magnitude:	 0.187 au	 0.476 Debye
 MP2 energy read as -1103.090822
 Full Analytical Gradient of MP2 Energy (in au.)
             1             2             3             4             5
    1    0.00005491    0.00237789   -0.00088333    0.00102764   -0.00229141
    2    0.00047313    0.00223260   -0.00047101   -0.00679177    0.00986325
    3   -0.00285548   -0.00408642    0.00286826    0.00528204   -0.00204301
             6             7             8             9            10
    1   -0.00007162    0.00229141   -0.00005491   -0.00102766   -0.00237789
    2   -0.00004854   -0.00986325   -0.00047313    0.00679177   -0.00223260
    3    0.00000501   -0.00204301   -0.00285548    0.00528204   -0.00408641
            11            12            13            14            15
    1    0.00088333   -0.00015850   -0.00010239    0.00015850    0.00010239
    2    0.00047101   -0.00095139   -0.00151618    0.00095139    0.00151618
    3    0.00286825   -0.00045458    0.00128418   -0.00045458    0.00128418
            16
    1    0.00007162
    2    0.00004854
    3    0.00000501
 Gradient time:  CPU 1.63 s  wall 0.11 s
 Geometry Optimization Parameters
   NAtoms,    NIC,     NZ,  NCons,   NDum,   NFix, NCnnct, MaxDiis
       16     111       0       1       0       0       0       0

 Cartesian Hessian Update
 Hessian Updated using BFGS Update


** CONSTRAINED OPTIMIZATION IN DELOCALIZED INTERNAL COORDINATES **
   Searching for a Minimum

   Optimization Cycle:   2

                       Coordinates (Angstroms)
     ATOM                X               Y               Z
      1  S         1.6609531663    0.6596494819    0.9703284316
      2  C         3.0643261262    0.1300352975    0.2857695676
      3  C         2.8754222730   -0.6389467575   -0.8511719042
      4  C         1.5495571247   -0.7238693594   -1.1933588953
      5  C         0.7135474661   -0.0514052198   -0.3212547118
      6  H         1.1756689442   -1.2647714438   -2.0448205312
      7  C        -0.7135474661    0.0514052198   -0.3212547118
      8  S        -1.6609531663   -0.6596494819    0.9703284316
      9  C        -1.5495571247    0.7238693594   -1.1933588953
     10  C        -3.0643261262   -0.1300352975    0.2857695676
     11  C        -2.8754222730    0.6389467575   -0.8511719042
     12  H        -3.6880058720    1.0870965234   -1.3911041176
     13  H         4.0115489493    0.3852680856    0.7271690693
     14  H         3.6880058720   -1.0870965234   -1.3911041176
     15  H        -4.0115489493   -0.3852680856    0.7271690693
     16  H        -1.1756689442    1.2647714438   -2.0448205312
   Point Group: c2    Number of degrees of freedom:    22


   Energy is  -1103.090821507

              Constraints and their Current Values
                                        Value     Constraint
   Dihedral:        4   5   7   9      -70.000      -70.000
 Hessian Updated using BFGS Update

 16 Hessian modes will be used to form the next step
  Hessian Eigenvalues:
     0.031793    0.051498    0.159873    0.160496    0.221761    0.243226
     0.250713    0.299172    0.364551    0.366065    0.368027    0.394690
     0.434872    0.464917    0.489715    0.518427

 Minimum Search - Taking Simple RFO Step
 Searching for Lamda that Minimizes Along All modes
 Value Taken    Lamda =  -0.00147725
 Step Taken.  Stepsize is  0.198907

                             Maximum     Tolerance    Cnvgd?
         Gradient           0.004331      0.000300      NO
         Displacement       0.124052      0.001200      NO
         Energy change     -0.004106      0.000001      NO


 New Cartesian Coordinates Obtained by Inverse Iteration

 Displacement from previous Coordinates is:  0.364242
 ----------------------------------------------------------------
             Standard Nuclear Orientation (Angstroms)
    I     Atom           X                Y                Z
 ----------------------------------------------------------------
    1      S       1.6319552972     0.6194392097     0.9903475606
    2      C       3.0426775500     0.1005092397     0.3196428542
    3      C       2.8801097660    -0.6300867537    -0.8498758863
    4      C       1.5615197916    -0.6964322347    -1.2254197297
    5      C       0.7171704291    -0.0392863182    -0.3542805002
    6      H       1.2000071744    -1.2164850386    -2.0948410080
    7      C      -0.7171704291     0.0392863182    -0.3542805002
    8      S      -1.6319552972    -0.6194392097     0.9903475606
    9      C      -1.5615197916     0.6964322347    -1.2254197297
   10      C      -3.0426775500    -0.1005092397     0.3196428542
   11      C      -2.8801097660     0.6300867537    -0.8498758863
   12      H      -3.7020664367     1.0736016742    -1.3795881339
   13      H       3.9828688439     0.3561272351     0.7755717517
   14      H       3.7020664367    -1.0736016742    -1.3795881339
   15      H      -3.9828688439    -0.3561272351     0.7755717517
   16      H      -1.2000071744     1.2164850386    -2.0948410080
 ----------------------------------------------------------------
 Molecular Point Group                 C2    NOp =  2
 Largest Abelian Subgroup              C2    NOp =  2
 Nuclear Repulsion Energy =   640.4952813723 hartrees
 There are       43 alpha and       42 beta electrons
 Applying Cartesian multipole field
    Component          Value
    ---------          -----
     (2,0,0)        1.00000E-11
     (0,2,0)        2.00000E-10
     (0,0,2)       -3.00000E-11
 Nucleus-field energy     =     0.0000000264 hartrees
 Requested basis set is cc-pVTZ
 There are 140 shells and 392 basis functions
 A cutoff of  1.0D-11 yielded   8052 shell pairs
 There are     62676 function pairs (     81712 Cartesian)
 Smallest overlap matrix eigenvalue = 9.45E-05
 Guess MOs from SCF MO coefficient file
 Reading MOs from coefficient file
 Reading MOs from coefficient file
 An unrestricted Hartree-Fock SCF calculation will be
 performed using Pulay DIIS extrapolation
 SCF converges when DIIS error is below 1.0E-08
 Geometry optimization detected.  Setting ReadMinima to 0
 Setting SaveMinima to 0
 using 16 threads for integral computing 
 ---------------------------------------
  Cycle       Energy         DIIS Error
 ---------------------------------------
    1   -1101.3287643168      7.50E-04
    2   -1101.3346629699      9.88E-05
    3   -1101.3351298839      3.78E-05
    4   -1101.3352119926      1.66E-05
    5   -1101.3352283703      5.51E-06
    6   -1101.3352311324      2.42E-06
    7   -1101.3352320938      1.38E-06
    8   -1101.3352324903      6.33E-07
    9   -1101.3352327956      5.31E-07
   10   -1101.3352330066      3.81E-07
   11   -1101.3352332794      2.61E-07
   12   -1101.3352334213      1.60E-07
   13   -1101.3352334744      1.06E-07
   14   -1101.3352334984      6.28E-08
   15   -1101.3352335079      3.06E-08
   16   -1101.3352335111      1.38E-08
   17   -1101.3352335119      6.86E-09 Convergence criterion met
 ---------------------------------------
 <S^2> = 0.9714
 SCF time:  CPU 1292.39 s  wall 80.83 s
 SCF   energy in the final basis set = -1101.3352335119
 Total energy in the final basis set = -1101.3352335119
 
 Components of the MP2 correlation energy:
        aaaa  correlation energy =        -0.2340411226 au
        abab  correlation energy =        -1.3080573761 au
        bbbb  correlation energy =        -0.2145275504 au
        non-Brillouin singles    =        -0.0000000000 au

 Total  MP2   correlation energy =        -1.7566260492 au
        MP2         total energy =     -1103.0918595610 au

  Entering Z-vector solver.
   1         0           1      0.000526    0.000526
   2         0           1      0.000478    0.000478
   3         0           1      0.000369    0.000369
   4         0           1      0.000324    0.000324
   5         0           1      0.000152    0.000152
   6         0           1      0.000082    0.000082
   7         0           1      0.000046    0.000046
   8         0           1      0.000027    0.000027
   9         0           1      0.000014    0.000014
  10         0           1      0.000007    0.000007
  11         0           1      0.000003    0.000003
  12         0           1      0.000001    0.000001
  13         1           0      0.000000    0.000000    Roots Converged
 Warning:  Cannot save MP2 spin density
 
 --------------------------------------------------------------
             Orbital Energies (a.u.) and Symmetries
 --------------------------------------------------------------
 
 Alpha MOs, Unrestricted
 -- Occupied --                  
-92.160 -92.160 -11.477 -11.476 -11.451 -11.451 -11.431 -11.431
  1 B     1 A     2 A     2 B     3 B     3 A     4 B     4 A                  
-11.405 -11.405  -9.163  -9.163  -6.843  -6.843  -6.843  -6.843
  5 A     5 B     6 B     6 A     7 B     7 A     8 A     8 B                  
 -6.841  -6.841  -1.393  -1.365  -1.228  -1.187  -1.186  -1.129
  9 B     9 A    10 A    10 B    11 A    11 B    12 A    12 B                  
 -0.993  -0.952  -0.937  -0.905  -0.887  -0.822  -0.753  -0.749
 13 A    14 A    13 B    14 B    15 A    15 B    16 B    16 A                  
 -0.746  -0.736  -0.727  -0.709  -0.696  -0.660  -0.653  -0.560
 17 A    17 B    18 A    19 A    18 B    20 A    19 B    20 B                  
 -0.540  -0.511  -0.493
 21 A    21 B    22 A                                                          
 -- Virtual --                   
 -0.097  -0.065   0.001   0.015   0.018   0.027   0.029   0.035
 22 B    23 A    24 A    23 B    25 A    26 A    24 B    25 B                  
  0.044   0.057   0.071   0.086   0.088   0.109   0.153   0.178
 27 A    26 B    28 A    27 B    29 A    28 B    30 A    29 B                  
  0.195   0.197   0.204   0.218   0.229   0.237   0.258   0.263
 30 B    31 A    32 A    31 B    33 A    32 B    33 B    34 A                  
  0.280   0.289   0.289   0.300   0.320   0.322   0.328   0.331
 35 A    36 A    34 B    35 B    36 B    37 A    37 B    38 A                  
  0.350   0.359   0.368   0.369   0.380   0.387   0.404   0.409
 39 A    38 B    39 B    40 A    40 B    41 A    42 A    41 B                  
  0.427   0.433   0.435   0.436   0.455   0.457   0.457   0.465
 43 A    42 B    43 B    44 A    44 B    45 A    46 A    45 B                  
  0.468   0.482   0.499   0.514   0.516   0.527   0.541   0.557
 47 A    46 B    47 B    48 A    48 B    49 A    50 A    49 B                  
  0.585   0.586   0.622   0.623   0.633   0.642   0.680   0.686
 50 B    51 A    52 A    51 B    53 A    52 B    53 B    54 A                  
  0.698   0.705   0.723   0.735   0.737   0.753   0.759   0.780
 55 A    54 B    55 B    56 B    56 A    57 A    57 B    58 B                  
  0.801   0.824   0.824   0.841   0.869   0.877   0.896   0.904
 58 A    59 A    59 B    60 A    61 A    60 B    61 B    62 A                  
  0.923   0.939   0.959   0.961   0.987   0.993   0.994   1.017
 62 B    63 A    63 B    64 A    64 B    65 A    65 B    66 A                  
  1.022   1.034   1.059   1.059   1.064   1.078   1.114   1.123
 67 A    66 B    67 B    68 A    68 B    69 A    69 B    70 A                  
  1.137   1.140   1.159   1.195   1.222   1.225   1.230   1.261
 70 B    71 A    71 B    72 A    72 B    73 B    73 A    74 A                  
  1.268   1.294   1.298   1.331   1.334   1.348   1.364   1.375
 74 B    75 B    75 A    76 B    76 A    77 B    77 A    78 A                  
  1.380   1.386   1.402   1.416   1.421   1.435   1.459   1.495
 78 B    79 A    79 B    80 A    80 B    81 A    81 B    82 A                  
  1.504   1.505   1.517   1.538   1.580   1.586   1.610   1.651
 82 B    83 A    83 B    84 A    84 B    85 B    85 A    86 B                  
  1.680   1.698   1.704   1.715   1.736   1.749   1.755   1.787
 86 A    87 A    87 B    88 B    88 A    89 A    89 B    90 A                  
  1.791   1.817   1.870   1.894   1.913   1.926   1.946   1.985
 90 B    91 A    91 B    92 B    92 A    93 B    93 A    94 A                  
  1.998   2.015   2.021   2.029   2.063   2.066   2.073   2.104
 94 B    95 A    95 B    96 A    97 A    96 B    97 B    98 A                  
  2.117   2.131   2.132   2.224   2.261   2.267   2.284   2.285
 98 B    99 A    99 B   100 A   101 A   100 B   102 A   101 B                  
  2.318   2.325   2.327   2.345   2.373   2.378   2.381   2.418
102 B   103 A   103 B   104 A   104 B   105 A   105 B   106 B                  
  2.423   2.451   2.473   2.502   2.543   2.555   2.572   2.575
106 A   107 B   107 A   108 A   108 B   109 A   109 B   110 A                  
  2.601   2.609   2.611   2.631   2.647   2.690   2.721   2.721
110 B   111 A   111 B   112 B   112 A   113 A   113 B   114 A                  
  2.732   2.747   2.775   2.787   2.806   2.823   2.846   2.847
114 B   115 A   115 B   116 A   116 B   117 A   117 B   118 A                  
  2.855   2.856   2.901   2.968   2.969   3.006   3.010   3.028
119 A   118 B   119 B   120 A   120 B   121 A   121 B   122 B                  
  3.032   3.041   3.050   3.064   3.066   3.084   3.091   3.094
122 A   123 B   123 A   124 B   124 A   125 A   125 B   126 B                  
  3.125   3.145   3.155   3.163   3.174   3.177   3.179   3.201
126 A   127 B   127 A   128 A   128 B   129 A   129 B   130 A                  
  3.218   3.232   3.252   3.255   3.264   3.283   3.295   3.297
130 B   131 A   132 A   131 B   133 A   134 A   132 B   133 B                  
  3.302   3.326   3.328   3.339   3.341   3.355   3.365   3.377
135 A   134 B   136 A   137 A   135 B   136 B   138 A   137 B                  
  3.387   3.412   3.419   3.431   3.435   3.445   3.469   3.472
138 B   139 B   139 A   140 A   140 B   141 A   142 A   141 B                  
  3.507   3.539   3.540   3.543   3.572   3.594   3.594   3.616
142 B   143 A   143 B   144 A   145 A   144 B   146 A   145 B                  
  3.620   3.661   3.699   3.702   3.729   3.748   3.766   3.779
147 A   146 B   147 B   148 A   148 B   149 A   149 B   150 A                  
  3.783   3.807   3.813   3.838   3.863   3.865   3.888   3.892
150 B   151 A   151 B   152 A   153 A   152 B   153 B   154 A                  
  3.914   3.951   3.951   3.970   4.002   4.002   4.024   4.025
154 B   155 A   155 B   156 A   157 A   156 B   158 A   157 B                  
  4.044   4.053   4.057   4.067   4.093   4.130   4.132   4.161
159 A   158 B   159 B   160 A   160 B   161 A   161 B   162 A                  
  4.171   4.202   4.240   4.256   4.320   4.324   4.348   4.357
162 B   163 A   163 B   164 A   165 A   164 B   166 A   165 B                  
  4.362   4.364   4.419   4.441   4.467   4.495   4.498   4.502
167 A   166 B   168 A   167 B   169 A   168 B   170 A   169 B                  
  4.540   4.565   4.584   4.615   4.624   4.643   4.679   4.698
171 A   170 B   171 B   172 A   172 B   173 A   173 B   174 A                  
  4.739   4.766   4.816   4.827   4.858   4.894   4.905   4.924
174 B   175 A   175 B   176 A   176 B   177 A   178 A   177 B                  
  4.925   4.949   5.015   5.058   5.072   5.115   5.155   5.223
179 A   178 B   179 B   180 A   180 B   181 A   181 B   182 A                  
  5.230   5.251   5.251   5.312   5.408   5.418   5.483   5.508
182 B   183 B   183 A   184 A   184 B   185 A   185 B   186 A                  
  5.674   5.696   5.838   5.877   5.928   5.958   6.034   6.046
186 B   187 A   187 B   188 A   188 B   189 A   189 B   190 A                  
  6.119   6.379   6.398   6.547   6.607   9.328  10.596  11.862
190 B   191 A   191 B   192 A   192 B   193 A   193 B   194 A                  
 12.220  13.200  13.340  14.617  14.733
194 B   195 A   195 B   196 A   196 B                                          
 
 Beta MOs, Unrestricted
 -- Occupied --                  
-92.161 -92.161 -11.475 -11.474 -11.440 -11.440 -11.425 -11.425
  1 B     1 A     2 A     2 B     3 B     3 A     4 B     4 A                  
-11.411 -11.411  -9.164  -9.164  -6.845  -6.845  -6.844  -6.844
  5 B     5 A     6 B     6 A     7 A     7 B     8 B     8 A                  
 -6.843  -6.843  -1.380  -1.351  -1.211  -1.185  -1.178  -1.107
  9 A     9 B    10 A    10 B    11 A    12 A    11 B    12 B                  
 -0.985  -0.943  -0.924  -0.901  -0.885  -0.817  -0.746  -0.740
 13 A    14 A    13 B    14 B    15 A    15 B    16 A    17 A                  
 -0.739  -0.723  -0.720  -0.678  -0.667  -0.658  -0.650  -0.535
 16 B    17 B    18 A    18 B    19 A    20 A    19 B    21 A                  
 -0.530  -0.478
 20 B    21 B                                                                  
 -- Virtual --                   
 -0.208  -0.047  -0.029   0.009   0.019   0.023   0.035   0.043
 22 A    22 B    23 A    24 A    23 B    25 A    24 B    26 A                  
  0.046   0.047   0.063   0.072   0.089   0.092   0.111   0.155
 25 B    27 A    26 B    28 A    27 B    29 A    28 B    30 A                  
  0.183   0.196   0.202   0.206   0.221   0.229   0.239   0.265
 29 B    30 B    31 A    32 A    31 B    33 A    32 B    33 B                  
  0.266   0.288   0.293   0.297   0.311   0.317   0.325   0.328
 34 A    35 A    36 A    34 B    35 B    36 B    37 A    37 B                  
  0.339   0.355   0.368   0.378   0.389   0.390   0.397   0.415
 38 A    39 A    38 B    39 B    40 A    40 B    41 A    42 A                  
  0.418   0.436   0.436   0.439   0.442   0.459   0.461   0.464
 41 B    43 A    42 B    43 B    44 A    45 A    44 B    46 A                  
  0.473   0.473   0.486   0.506   0.516   0.520   0.532   0.548
 47 A    45 B    46 B    47 B    48 A    48 B    49 A    50 A                  
  0.560   0.587   0.590   0.624   0.625   0.634   0.644   0.682
 49 B    51 A    50 B    51 B    52 A    53 A    52 B    53 B                  
  0.694   0.700   0.711   0.729   0.739   0.741   0.756   0.761
 54 A    55 A    54 B    55 B    56 A    56 B    57 A    57 B                  
  0.782   0.806   0.829   0.830   0.842   0.873   0.880   0.901
 58 B    58 A    59 A    59 B    60 A    61 A    60 B    61 B                  
  0.907   0.926   0.946   0.965   0.965   0.990   0.995   0.996
 62 A    62 B    63 A    63 B    64 A    64 B    65 A    65 B                  
  1.022   1.025   1.038   1.060   1.062   1.067   1.082   1.118
 66 A    67 A    66 B    67 B    68 A    68 B    69 A    69 B                  
  1.124   1.139   1.146   1.166   1.199   1.228   1.232   1.238
 70 A    70 B    71 A    71 B    72 A    72 B    73 B    73 A                  
  1.270   1.271   1.296   1.301   1.334   1.337   1.356   1.364
 74 A    74 B    75 B    75 A    76 B    76 A    77 B    77 A                  
  1.380   1.381   1.390   1.405   1.418   1.423   1.438   1.465
 78 A    78 B    79 A    79 B    80 A    80 B    81 A    81 B                  
  1.499   1.507   1.507   1.519   1.542   1.583   1.591   1.611
 82 A    82 B    83 A    83 B    84 A    84 B    85 B    85 A                  
  1.651   1.681   1.699   1.707   1.715   1.736   1.750   1.756
 86 B    86 A    87 A    87 B    88 B    88 A    89 A    89 B                  
  1.790   1.791   1.818   1.870   1.895   1.913   1.928   1.948
 90 A    90 B    91 A    91 B    92 B    92 A    93 B    93 A                  
  1.987   1.998   2.014   2.022   2.031   2.065   2.066   2.075
 94 A    94 B    95 A    95 B    96 A    97 A    96 B    97 B                  
  2.118   2.130   2.134   2.137   2.229   2.259   2.265   2.289
 98 A    98 B    99 A    99 B   100 A   101 A   100 B   102 A                  
  2.292   2.323   2.327   2.329   2.348   2.376   2.393   2.393
101 B   102 B   103 A   103 B   104 A   104 B   105 B   105 A                  
  2.427   2.431   2.454   2.479   2.503   2.545   2.560   2.576
106 B   106 A   107 B   107 A   108 A   108 B   109 A   109 B                  
  2.580   2.607   2.616   2.618   2.637   2.653   2.700   2.724
110 A   110 B   111 A   111 B   112 B   112 A   113 A   114 A                  
  2.725   2.741   2.753   2.778   2.795   2.809   2.827   2.851
113 B   114 B   115 A   115 B   116 A   116 B   117 A   117 B                  
  2.852   2.859   2.864   2.904   2.971   2.977   3.008   3.019
118 A   119 A   118 B   119 B   120 A   120 B   121 A   121 B                  
  3.031   3.040   3.041   3.054   3.070   3.074   3.087   3.097
122 B   122 A   123 B   123 A   124 B   124 A   125 A   125 B                  
  3.103   3.133   3.153   3.161   3.169   3.177   3.181   3.182
126 B   126 A   127 B   127 A   128 A   128 B   129 A   129 B                  
  3.204   3.220   3.236   3.258   3.258   3.267   3.285   3.296
130 A   130 B   131 A   132 A   131 B   133 A   134 A   132 B                  
  3.304   3.304   3.339   3.340   3.344   3.349   3.359   3.371
135 A   133 B   136 A   134 B   135 B   137 A   136 B   138 A                  
  3.383   3.390   3.417   3.423   3.435   3.441   3.449   3.473
137 B   138 B   139 B   139 A   140 A   140 B   141 A   142 A                  
  3.474   3.511   3.542   3.546   3.547   3.577   3.598   3.598
141 B   142 B   143 A   143 B   144 A   145 A   146 A   144 B                  
  3.620   3.625   3.664   3.702   3.707   3.732   3.748   3.767
145 B   147 A   146 B   147 B   148 A   148 B   149 A   149 B                  
  3.783   3.788   3.810   3.818   3.840   3.867   3.867   3.891
150 A   150 B   151 A   151 B   152 A   152 B   153 A   153 B                  
  3.896   3.916   3.954   3.955   3.971   4.003   4.004   4.025
154 A   154 B   155 A   155 B   156 A   157 A   156 B   157 B                  
  4.027   4.046   4.055   4.059   4.069   4.095   4.131   4.133
158 A   159 A   158 B   159 B   160 A   160 B   161 A   161 B                  
  4.162   4.173   4.204   4.241   4.258   4.321   4.326   4.349
162 A   162 B   163 A   163 B   164 A   165 A   164 B   166 A                  
  4.358   4.364   4.365   4.423   4.443   4.470   4.497   4.500
165 B   167 A   166 B   168 A   167 B   169 A   168 B   170 A                  
  4.504   4.544   4.567   4.584   4.615   4.626   4.644   4.680
169 B   171 A   170 B   171 B   172 A   172 B   173 A   173 B                  
  4.700   4.741   4.768   4.818   4.830   4.860   4.895   4.907
174 A   174 B   175 A   175 B   176 A   176 B   177 A   178 A                  
  4.926   4.926   4.952   5.017   5.060   5.076   5.119   5.157
177 B   179 A   178 B   179 B   180 A   180 B   181 A   181 B                  
  5.224   5.232   5.252   5.252   5.313   5.409   5.419   5.484
182 A   182 B   183 B   183 A   184 A   184 B   185 A   185 B                  
  5.509   5.675   5.697   5.839   5.877   5.928   5.959   6.035
186 A   186 B   187 A   187 B   188 A   188 B   189 A   189 B                  
  6.046   6.119   6.380   6.399   6.548   6.607   9.331  10.599
190 A   190 B   191 A   191 B   192 A   192 B   193 A   193 B                  
 11.867  12.224  13.203  13.342  14.618  14.735
194 A   194 B   195 A   195 B   196 A   196 B                                  
 --------------------------------------------------------------
 
          Ground-State Mulliken Net Atomic Charges

     Atom                 Charge (a.u.)    Spin (a.u.)
  --------------------------------------------------------
      1 S                     0.280028      -0.018984
      2 C                    -0.115625      -0.156838
      3 C                    -0.150398       0.580183
      4 C                    -0.134233      -0.395133
      5 C                    -0.068632       0.482944
      6 H                     0.220828       0.028229
      7 C                    -0.068632       0.482944
      8 S                     0.280028      -0.018984
      9 C                    -0.134233      -0.395132
     10 C                    -0.115626      -0.156838
     11 C                    -0.150399       0.580182
     12 H                     0.225270      -0.040886
     13 H                     0.242763       0.020484
     14 H                     0.225270      -0.040886
     15 H                     0.242763       0.020484
     16 H                     0.220828       0.028229
  --------------------------------------------------------
  Sum of atomic charges =     1.000000
  Sum of spin   charges =     1.000000

 -----------------------------------------------------------------
                    Cartesian Multipole Moments
 -----------------------------------------------------------------
    Charge (ESU x 10^10)
                 4.8032
    Dipole Moment (Debye)
[...]
 ******************************

                       Coordinates (Angstroms)
     ATOM                X               Y               Z
      1  S         1.5717929774    0.4951429208    1.0498377539
      2  C         3.0118811379   -0.0019907438    0.3936147955
      3  C         2.8924996687   -0.5706106698   -0.8602917348
      4  C         1.5952718514   -0.5563652928   -1.2973571831
      5  C         0.7089480173    0.0326413505   -0.3988404076
      6  H         1.2679738120   -0.9707463134   -2.2348979162
      7  C        -0.7089480173   -0.0326413505   -0.3988404076
      8  S        -1.5717929774   -0.4951429208    1.0498377539
      9  C        -1.5952718514    0.5563652928   -1.2973571831
     10  C        -3.0118811379    0.0019907438    0.3936147955
     11  C        -2.8924996687    0.5706106698   -0.8602917348
     12  H        -3.7255895008    0.9791237353   -1.3998741697
     13  H         3.9308925256    0.1555373671    0.9293657705
     14  H         3.7255895008   -0.9791237353   -1.3998741697
     15  H        -3.9308925256   -0.1555373671    0.9293657705
     16  H        -1.2679738120    0.9707463134   -2.2348979162

Z-matrix Print:
$molecule
1 2
S 
C  1 1.658802
H  2 1.075373 1 120.061500
C  2 1.381978 1 114.032515 3 178.346007 0
H  4 1.073346 2 123.070700 1 177.341500 0
C  4 1.368952 2 111.546707 1 -1.850494 0
H  6 1.076020 4 124.222776 2 178.299919 0
C  6 1.392778 4 113.669537 2 -0.687713 0
C  8 1.419398 6 128.042594 4 165.627557 0
C  9 1.392778 8 128.042594 6 70.000000 0
H  10 1.076020 9 122.099691 8 -13.384299 0
C  10 1.368952 9 113.669537 8 165.627557 0
H  12 1.073346 10 125.377147 9 -179.857271 0
C  12 1.381978 10 111.546707 9 -0.687713 0
H  14 1.075373 12 125.882692 10 176.382650 0
S  14 1.658802 12 114.032515 10 -1.850494 0
$end

 
 --------------------------------------------------------------
             Orbital Energies (a.u.) and Symmetries
 --------------------------------------------------------------
 
 Alpha MOs, Unrestricted
 -- Occupied --                  
-92.160 -92.160 -11.478 -11.477 -11.451 -11.451 -11.434 -11.434
  1 A     1 B     2 A     2 B     3 B     3 A     4 B     4 A                  
-11.402 -11.402  -9.162  -9.162  -6.843  -6.843  -6.842  -6.842
  5 A     5 B     6 B     6 A     7 B     7 A     8 A     8 B                  
 -6.840  -6.840  -1.394  -1.364  -1.230  -1.189  -1.184  -1.129
  9 A     9 B    10 A    10 B    11 A    12 A    11 B    12 B                  
 -0.997  -0.955  -0.932  -0.905  -0.888  -0.823  -0.753  -0.752
 13 A    14 A    13 B    14 B    15 A    15 B    16 B    16 A                  
 -0.746  -0.736  -0.728  -0.710  -0.692  -0.664  -0.648  -0.569
 17 A    17 B    18 A    19 A    18 B    20 A    19 B    20 B                  
 -0.538  -0.514  -0.489
 21 A    21 B    22 A                                                          
 -- Virtual --                   
 -0.111  -0.056  -0.000   0.017   0.018   0.026   0.028   0.041
 22 B    23 A    24 A    25 A    23 B    24 B    26 A    25 B                  
  0.043   0.060   0.071   0.082   0.095   0.113   0.143   0.182
 27 A    26 B    28 A    29 A    27 B    28 B    30 A    29 B                  
  0.187   0.200   0.205   0.214   0.224   0.241   0.260   0.264
 31 A    30 B    32 A    31 B    33 A    32 B    33 B    34 A                  
  0.279   0.285   0.291   0.298   0.318   0.321   0.327   0.350
 35 A    34 B    36 A    35 B    36 B    37 A    37 B    38 A                  
  0.362   0.364   0.364   0.371   0.383   0.385   0.393   0.407
 39 A    38 B    40 A    39 B    41 A    40 B    42 A    41 B                  
  0.427   0.428   0.430   0.446   0.448   0.455   0.458   0.471
 43 A    42 B    43 B    44 A    45 A    44 B    46 A    47 A                  
  0.472   0.477   0.509   0.514   0.518   0.527   0.547   0.547
 45 B    46 B    47 B    48 A    49 A    48 B    49 B    50 A                  
  0.582   0.583   0.619   0.620   0.635   0.642   0.675   0.683
 50 B    51 A    51 B    52 A    53 A    52 B    53 B    54 A                  
  0.693   0.705   0.716   0.735   0.748   0.749   0.774   0.782
 55 A    54 B    55 B    56 A    56 B    57 A    57 B    58 B                  
  0.801   0.808   0.832   0.837   0.867   0.879   0.905   0.910
 58 A    59 B    59 A    60 A    61 A    60 B    61 B    62 A                  
  0.923   0.926   0.941   0.956   0.959   0.983   0.998   1.010
 62 B    63 A    64 A    63 B    64 B    65 B    65 A    66 A                  
  1.025   1.025   1.047   1.056   1.065   1.087   1.097   1.127
 66 B    67 A    67 B    68 A    68 B    69 A    69 B    70 B                  
  1.134   1.143   1.165   1.184   1.211   1.229   1.242   1.250
 70 A    71 A    71 B    72 A    72 B    73 A    74 A    73 B                  
  1.267   1.298   1.298   1.331   1.341   1.355   1.362   1.366
 74 B    75 A    75 B    76 A    76 B    77 B    77 A    78 A                  
  1.374   1.381   1.404   1.407   1.421   1.421   1.459   1.485
 79 A    78 B    80 A    79 B    80 B    81 A    81 B    82 A                  
  1.488   1.509   1.518   1.534   1.588   1.603   1.615   1.649
 82 B    83 A    83 B    84 A    84 B    85 A    85 B    86 B                  
  1.666   1.692   1.701   1.726   1.732   1.750   1.770   1.785
 86 A    87 A    87 B    88 B    88 A    89 B    89 A    90 A                  
  1.789   1.815   1.876   1.908   1.911   1.939   1.945   1.989
 90 B    91 A    91 B    92 A    92 B    93 A    93 B    94 A                  
  1.998   2.011   2.011   2.036   2.061   2.070   2.073   2.107
 94 B    95 B    95 A    96 A    96 B    97 B    97 A    98 B                  
  2.110   2.133   2.137   2.206   2.241   2.260   2.272   2.290
 98 A    99 B    99 A   100 B   100 A   101 A   101 B   102 A                  
  2.300   2.324   2.330   2.347   2.369   2.379   2.403   2.405
102 B   103 A   103 B   104 A   104 B   105 A   105 B   106 B                  
  2.425   2.474   2.484   2.502   2.548   2.552   2.569   2.571
106 A   107 B   107 A   108 A   109 A   108 B   110 A   109 B                  
  2.599   2.602   2.629   2.642   2.658   2.684   2.720   2.735
110 B   111 A   111 B   112 B   112 A   113 A   113 B   114 B                  
  2.737   2.748   2.764   2.790   2.804   2.826   2.827   2.843
114 A   115 A   115 B   116 A   117 A   118 A   116 B   117 B                  
  2.858   2.875   2.896   2.972   2.979   3.008   3.011   3.015
119 A   118 B   119 B   120 A   120 B   121 A   121 B   122 A                  
  3.020   3.047   3.052   3.059   3.060   3.073   3.088   3.091
122 B   123 B   123 A   124 B   124 A   125 A   125 B   126 B                  
  3.133   3.144   3.145   3.167   3.175   3.176   3.197   3.221
126 A   127 B   127 A   128 A   128 B   129 A   130 A   131 A                  
  3.222   3.234   3.248   3.249   3.262   3.279   3.281   3.307
129 B   130 B   131 B   132 A   133 A   132 B   134 A   133 B                  
  3.314   3.324   3.326   3.331   3.335   3.336   3.365   3.374
135 A   136 A   134 B   137 A   135 B   136 B   138 A   137 B                  
  3.384   3.404   3.412   3.439   3.440   3.449   3.450   3.470
138 B   139 A   139 B   140 A   140 B   141 B   141 A   142 B                  
  3.489   3.525   3.547   3.562   3.567   3.589   3.605   3.617
142 A   143 B   143 A   144 A   145 A   144 B   146 A   147 A                  
  3.621   3.663   3.692   3.704   3.718   3.759   3.763   3.772
145 B   146 B   147 B   148 A   148 B   149 B   149 A   150 A                  
  3.774   3.807   3.819   3.837   3.873   3.879   3.885   3.888
150 B   151 A   151 B   152 A   153 A   152 B   153 B   154 A                  
  3.905   3.931   3.959   3.959   3.996   4.004   4.025   4.032
154 B   155 A   156 A   155 B   157 A   156 B   158 A   157 B                  
  4.042   4.048   4.065   4.066   4.107   4.128   4.139   4.164
159 A   158 B   160 A   159 B   160 B   161 B   161 A   162 A                  
  4.172   4.204   4.244   4.263   4.301   4.318   4.353   4.356
162 B   163 A   163 B   164 A   165 A   164 B   166 A   165 B                  
  4.357   4.368   4.418   4.446   4.473   4.496   4.506   4.516
167 A   166 B   168 A   167 B   169 A   168 B   170 A   169 B                  
  4.547   4.563   4.578   4.607   4.634   4.639   4.666   4.703
171 A   170 B   171 B   172 A   172 B   173 A   173 B   174 A                  
  4.747   4.763   4.776   4.829   4.849   4.892   4.909   4.917
174 B   175 A   175 B   176 A   176 B   177 A   178 A   177 B                  
  4.938   4.959   5.002   5.047   5.082   5.109   5.166   5.224
179 A   178 B   179 B   180 A   180 B   181 A   181 B   182 A                  
  5.235   5.254   5.262   5.319   5.409   5.423   5.481   5.495
182 B   183 B   183 A   184 A   184 B   185 A   185 B   186 A                  
  5.659   5.686   5.815   5.858   5.941   5.959   6.026   6.033
186 B   187 A   187 B   188 A   188 B   189 A   190 A   189 B                  
  6.141   6.372   6.395   6.553   6.560   9.298  10.602  11.834
190 B   191 A   191 B   192 B   192 A   193 A   193 B   194 A                  
 12.387  13.171  13.313  14.621  14.700
194 B   195 A   195 B   196 A   196 B                                          
 
 Beta MOs, Unrestricted
 -- Occupied --                  
-92.161 -92.161 -11.477 -11.476 -11.439 -11.439 -11.427 -11.427
  1 A     1 B     2 A     2 B     3 B     3 A     4 B     4 A                  
-11.409 -11.409  -9.164  -9.164  -6.845  -6.845  -6.844  -6.844
  5 B     5 A     6 B     6 A     7 B     7 A     8 A     8 B                  
 -6.843  -6.843  -1.382  -1.349  -1.218  -1.184  -1.175  -1.107
  9 B     9 A    10 A    10 B    11 A    12 A    11 B    12 B                  
 -0.989  -0.947  -0.920  -0.900  -0.885  -0.819  -0.749  -0.740
 13 A    14 A    13 B    14 B    15 A    15 B    16 A    17 A                  
 -0.737  -0.724  -0.723  -0.677  -0.665  -0.663  -0.646  -0.537
 16 B    18 A    17 B    18 B    19 A    20 A    19 B    21 A                  
 -0.533  -0.498
 20 B    21 B                                                                  
 -- Virtual --                   
 -0.194  -0.051  -0.027   0.008   0.022   0.022   0.038   0.043
 22 A    22 B    23 A    24 A    23 B    25 A    24 B    26 A                  
  0.046   0.047   0.064   0.072   0.086   0.099   0.114   0.145
 25 B    27 A    26 B    28 A    29 A    27 B    28 B    30 A                  
  0.188   0.193   0.202   0.207   0.216   0.224   0.243   0.267
 29 B    31 A    30 B    32 A    31 B    33 A    32 B    33 B                  
  0.267   0.287   0.290   0.295   0.314   0.316   0.321   0.325
 34 A    35 A    34 B    36 A    35 B    36 B    37 A    37 B                  
  0.356   0.368   0.378   0.380   0.387   0.389   0.397   0.404
 38 A    39 A    38 B    39 B    40 A    40 B    41 A    42 A                  
  0.417   0.432   0.432   0.433   0.453   0.455   0.461   0.461
 41 B    43 A    42 B    43 B    44 A    45 A    46 A    44 B                  
  0.476   0.480   0.481   0.514   0.515   0.523   0.531   0.551
 47 A    45 B    46 B    47 B    48 A    49 A    48 B    49 B                  
  0.551   0.584   0.586   0.619   0.622   0.637   0.645   0.677
 50 A    51 A    50 B    51 B    52 A    53 A    52 B    53 B                  
  0.689   0.696   0.713   0.720   0.738   0.750   0.752   0.779
 54 A    55 A    54 B    55 B    56 A    56 B    57 A    57 B                  
  0.784   0.806   0.814   0.836   0.840   0.870   0.882   0.910
 58 B    58 A    59 B    59 A    60 A    61 A    60 B    61 B                  
  0.916   0.926   0.931   0.951   0.957   0.966   0.985   0.998
 62 A    62 B    63 A    64 A    63 B    64 B    65 B    65 A                  
  1.015   1.027   1.030   1.049   1.059   1.067   1.092   1.098
 66 A    67 A    66 B    67 B    68 A    68 B    69 A    69 B                  
  1.132   1.134   1.151   1.171   1.187   1.218   1.238   1.252
 70 B    70 A    71 A    71 B    72 A    72 B    73 A    74 A                  
  1.254   1.270   1.301   1.302   1.334   1.345   1.364   1.365
 73 B    74 B    75 A    75 B    76 A    76 B    77 A    77 B                  
  1.369   1.379   1.381   1.404   1.409   1.424   1.425   1.466
 78 A    79 A    78 B    80 A    79 B    80 B    81 A    81 B                  
  1.490   1.490   1.512   1.519   1.537   1.591   1.603   1.618
 82 A    82 B    83 A    83 B    84 A    84 B    85 A    85 B                  
  1.648   1.668   1.693   1.704   1.725   1.731   1.751   1.772
 86 B    86 A    87 A    87 B    88 B    88 A    89 B    89 A                  
  1.785   1.788   1.817   1.877   1.908   1.912   1.941   1.946
 90 A    90 B    91 A    91 B    92 A    92 B    93 A    93 B                  
  1.990   1.998   2.010   2.011   2.038   2.061   2.073   2.074
 94 A    94 B    95 A    95 B    96 A    96 B    97 B    97 A                  
  2.120   2.125   2.137   2.140   2.211   2.240   2.263   2.268
 98 B    98 A    99 B    99 A   100 B   100 A   101 A   101 B                  
  2.295   2.308   2.327   2.332   2.350   2.379   2.394   2.407
102 A   102 B   103 A   103 B   104 A   104 B   105 A   105 B                  
  2.415   2.431   2.480   2.488   2.503   2.550   2.554   2.575
106 B   106 A   107 B   107 A   108 A   109 A   108 B   110 A                  
  2.576   2.605   2.609   2.636   2.646   2.664   2.693   2.721
109 B   110 B   111 A   111 B   112 B   112 A   113 A   113 B                  
  2.740   2.745   2.754   2.771   2.799   2.807   2.829   2.833
114 A   114 B   115 A   115 B   116 A   117 A   118 A   116 B                  
  2.848   2.865   2.878   2.899   2.975   2.987   3.014   3.019
117 B   119 A   118 B   119 B   120 A   120 B   121 A   122 A                  
  3.020   3.026   3.049   3.059   3.062   3.063   3.080   3.094
121 B   122 B   123 B   123 A   124 A   124 B   125 A   125 B                  
  3.100   3.145   3.151   3.151   3.172   3.178   3.181   3.202
126 B   126 A   127 B   127 A   128 A   129 A   128 B   130 A                  
  3.225   3.226   3.236   3.250   3.252   3.266   3.284   3.286
129 B   131 A   130 B   132 A   131 B   133 A   134 A   132 B                  
  3.311   3.316   3.330   3.335   3.339   3.345   3.348   3.369
133 B   135 A   136 A   134 B   135 B   136 B   137 A   138 A                  
  3.377   3.389   3.408   3.417   3.442   3.445   3.455   3.455
137 B   138 B   139 A   139 B   140 A   140 B   141 A   141 B                  
  3.472   3.492   3.530   3.551   3.567   3.572   3.592   3.609
142 B   142 A   143 B   143 A   144 A   145 A   144 B   146 A                  
  3.621   3.626   3.665   3.696   3.709   3.721   3.762   3.764
147 A   145 B   146 B   147 B   148 A   148 B   149 B   149 A                  
  3.775   3.776   3.810   3.824   3.840   3.876   3.883   3.887
150 A   150 B   151 A   151 B   152 A   153 A   152 B   153 B                  
  3.891   3.907   3.933   3.961   3.962   3.998   4.005   4.027
154 A   154 B   155 A   156 A   155 B   157 A   156 B   158 A                  
  4.033   4.044   4.051   4.066   4.068   4.109   4.129   4.140
157 B   159 A   158 B   160 A   159 B   160 B   161 B   161 A                  
  4.164   4.174   4.204   4.245   4.265   4.303   4.319   4.353
162 A   162 B   163 A   163 B   164 A   165 A   164 B   166 A                  
  4.357   4.358   4.369   4.422   4.449   4.475   4.497   4.507
165 B   167 A   166 B   168 A   167 B   169 A   168 B   170 A                  
  4.519   4.551   4.565   4.578   4.608   4.636   4.640   4.667
169 B   171 A   170 B   171 B   172 A   172 B   173 A   173 B                  
  4.705   4.748   4.765   4.778   4.832   4.851   4.894   4.910
174 A   174 B   175 A   175 B   176 A   176 B   177 A   178 A                  
  4.918   4.939   4.963   5.003   5.049   5.088   5.115   5.168
177 B   179 A   178 B   179 B   180 A   180 B   181 A   181 B                  
  5.226   5.237   5.255   5.264   5.319   5.411   5.424   5.482
182 A   182 B   183 B   183 A   184 A   184 B   185 A   185 B                  
  5.497   5.660   5.687   5.816   5.859   5.941   5.960   6.026
186 A   186 B   187 A   187 B   188 A   188 B   189 A   190 A                  
  6.034   6.141   6.373   6.396   6.553   6.561   9.300  10.605
189 B   190 B   191 A   191 B   192 B   192 A   193 A   193 B                  
 11.838  12.391  13.176  13.315  14.622  14.701
194 A   194 B   195 A   195 B   196 A   196 B                                  
 --------------------------------------------------------------
 
          Ground-State Mulliken Net Atomic Charges

     Atom                 Charge (a.u.)    Spin (a.u.)
  --------------------------------------------------------
      1 S                     0.255404      -0.040304
      2 C                    -0.109640      -0.052017
      3 C                    -0.160272       0.434081
      4 C                    -0.125102      -0.249719
      5 C                    -0.046204       0.405654
      6 H                     0.219443       0.021345
      7 C                    -0.046204       0.405654
      8 S                     0.255404      -0.040304
      9 C                    -0.125102      -0.249719
     10 C                    -0.109640      -0.052017
     11 C                    -0.160272       0.434081
     12 H                     0.225933      -0.033196
     13 H                     0.240439       0.014156
     14 H                     0.225933      -0.033196
     15 H                     0.240439       0.014156
     16 H                     0.219443       0.021345
  --------------------------------------------------------
  Sum of atomic charges =     1.000000
  Sum of spin   charges =     1.000000

 -----------------------------------------------------------------
                    Cartesian Multipole Moments
 -----------------------------------------------------------------
    Charge (ESU x 10^10)
                 4.8032
    Dipole Moment (Debye)
         X       0.0000      Y      -0.0000      Z      -0.5044
       Tot       0.5044
    Quadrupole Moments (Debye-Ang)
        XX     -23.1570     XY      -3.4937     YY     -70.0248
        XZ       0.0000     YZ       0.0000     ZZ     -58.5491
    Octopole Moments (Debye-Ang^2)
       XXX       0.0000    XXY      -0.0000    XYY       0.0000
       YYY       0.0000    XXZ       8.0577    XYZ      15.6703
       YYZ      -2.8871    XZZ       0.0000    YZZ      -0.0000
       ZZZ     -11.2798
    Hexadecapole Moments (Debye-Ang^3)
      XXXX   -1257.8081   XXXY     -11.2884   XXYY    -345.7071
      XYYY      36.9957   YYYY    -176.5076   XXXZ       0.0000
      XXYZ       0.0000   XYYZ      -0.0000   YYYZ       0.0000
      XXZZ    -326.8195   XYZZ      -4.5490   YYZZ     -97.3709
      XZZZ      -0.0000   YZZZ       0.0000   ZZZZ    -425.1946
 -----------------------------------------------------------------
Archival summary:
1\1\nid01567\OPT\MP2\BasisUnspecified\286(1+,2)\TueMar712:59:472017TueMar712:59:472017\0\\#,OPT,MP2,BasisUnspecified,\\1,2\S\C,1,1.6588\H,2,1.07537,1,120.061\C,2,1.38198,1,114.033,3,178.346,0\H,4,1.07335,2,123.071,1,177.341,0\C,4,1.36895,2,111.547,1,-1.85049,0\H,6,1.07602,4,124.223,2,178.3,0\C,6,1.39278,4,113.67,2,-0.687713,0\C,8,1.4194,6,128.043,4,165.628,0\C,9,1.39278,8,128.043,6,70,0\H,10,1.07602,9,122.1,8,-13.3843,0\C,10,1.36895,9,113.67,8,165.628,0\H,12,1.07335,10,125.377,9,-179.857,0\C,12,1.38198,10,111.547,9,-0.687713,0\H,14,1.07537,12,125.883,10,176.383,0\S,14,1.6588,12,114.033,10,-1.85049,0\\HF=-1101.34499\MP2=-1103.09376\\@

 Total job time:  28401.14s(wall), 139021.35s(cpu) 
 Tue Mar  7 12:59:47 2017

        *************************************************************
        *                                                           *
        *  Thank you very much for using Q-Chem.  Have a nice day.  *
        *                                                           *
        *************************************************************


0 sent ACK to 0 
now end server 0 ... 
