srun -N 1 --ntasks-per-node 1 --cpus-per-task 64 --cpu_bind=cores --nodelist nid01575 /global/project/projectdirs/jcesr/qchem/qc44/cnl_qc441/dist/exe/qcprog.cori.haswell.exe .pt_mp2_hole_90.0.in.59496.qcin.1 /dev/shm/eg_qchem/qchem59496/
Process 0 of 1 is on nid01575 - thread support 0
initial socket setup ...start
initial socket setup ...done 
now start server 0 ... 
nid01575 10.128.6
Q-Chem Developer Version! Running on 10.128.6.*
                  Welcome to Q-Chem
     A Quantum Leap Into The Future Of Chemistry


 Q-Chem 4.4, Q-Chem, Inc., Pleasanton, CA (2016)

 Y. Shao,  Z. Gan,  E. Epifanovsky,  A. T. B. Gilbert,  M. Wormit,  
 J. Kussmann,  A. W. Lange,  A. Behn,  J. Deng,  X. Feng,  D. Ghosh,  
 M. Goldey,  P. R. Horn,  L. D. Jacobson,  I. Kaliman,  F.Rob,  
 R. Z. Khaliullin,  T. Kus,  A. Landau,  J. Liu,  E. I. Proynov,  Y. M. Rhee,  
 R. M. Richard,  M. A. Rohrdanz,  R. P. Steele,  E. J. Sundstrom,  
 H. L. Woodcock III,  P. M. Zimmerman,  D. Zuev,  B. Albrecht,  E. Alguire,  
 B. Austin,  S. A. Baeppler,  G. J. O. Beran,  Y. A. Bernard,  E. Berquist,  
 K. Brandhorst,  K. B. Bravaya,  S. T. Brown,  D. Casanova,  C.-M. Chang,  
 Y. Chen,  S. H. Chien,  K. D. Closser,  M. P. Coons,  D. L. Crittenden,  
 S. Dasgupta,  M. Diedenhofen,  R. A. DiStasio Jr.,  H. Do,  A. D. Dutoi,  
 R. G. Edgar,  P.-T. Fang,  S. Fatehi,  Q. Feng,  L. Fusti-Molnar,  
 A. Ghysels,  A. Golubeva-Zadorozhnaya,  J. Gomes,  A. Gunina,  
 M. W. D. Hanson-Heine,  P. H. P. Harbach,  A. W. Hauser,  E. G. Hohenstein,  
 Z. C. Holden,  K. Hui,  T.-C. Jagau,  H. Ji,  B. Kaduk,  K. Khistyaev,  
 Jaehoon Kim,  Jihan Kim,  R. A. King,  P. Klunzinger,  D. Kosenkov,  
 T. Kowalczyk,  C. M. Krauter,  A. Kunitsa,  K. U. Lao,  A. Laurent,  
 K. V. Lawler,  D. Lefrancois,  S. Lehtola,  S. V. Levchenko,  C. Y. Lin,  
 Y.-S. Lin,  F. Liu,  E. Livshits,  R. C. Lochan,  A. Luenser,  P. Manohar,  
 S. F. Manzer,  S.-P. Mao,  Y. Mao,  N. Mardirossian,  A. V. Marenich,  
 L. A. Martinez-Martinez,  S. A. Maurer,  N. J. Mayhall,  J.-M. Mewes,  
 A. F. Morrison,  K. Nanda,  C. M. Oana,  R. Olivares-Amaya,  D. P. O'Neill,  
 J. A. Parkhill,  T. M. Perrine,  R. Peverati,  P. A. Pieniazek,  F. Plasser,  
 A. Prociuk,  D. R. Rehn,  E. Rosta,  N. J. Russ,  N. Sergueev,  
 S. M. Sharada,  S. Sharma,  D. W. Small,  A. Sodt,  T. Stauch,  T. Stein,  
 D. Stuck,  Y.-C. Su,  A. J. W. Thom,  T. Tsuchimochi,  L. Vogt,  O. Vydrov,  
 T. Wang,  M. A. Watson,  J. Wenzel,  A. White,  C. F. Williams,  
 V. Vanovschi,  S. Yeganeh,  S. R. Yost,  Z.-Q. You,  I. Y. Zhang,  X. Zhang,  
 Y. Zhao,  B. R. Brooks,  G. K. L. Chan,  D. M. Chipman,  C. J. Cramer,  
 W. A. Goddard III,  M. S. Gordon,  W. J. Hehre,  A. Klamt,  
 H. F. Schaefer III,  M. W. Schmidt,  C. D. Sherrill,  D. G. Truhlar,  
 A. Warshel,  X. Xu,  A. Aspuru-Guzik,  R. Baer,  A. T. Bell,  N. A. Besley,  
 J.-D. Chai,  A. Dreuw,  B. D. Dunietz,  T. R. Furlani,  S. R. Gwaltney,  
 C.-P. Hsu,  Y. Jung,  J. Kong,  D. S. Lambrecht,  W. Liang,  C. Ochsenfeld,  
 V. A. Rassolov,  L. V. Slipchenko,  J. E. Subotnik,  T. Van Voorhis,  
 J. M. Herbert,  A. I. Krylov,  P. M. W. Gill,  M. Head-Gordon

 Contributors to earlier versions of Q-Chem not listed above: 
 R. D. Adamson,  J. Baker,  E. F. C. Byrd,  A. K. Chakraborty,  C.-L. Cheng,  
 H. Dachsel,  R. J. Doerksen,  G. Hawkins,  A. Heyden,  S. Hirata,  
 G. Kedziora,  F. J. Keil,  C. Kelley,  P. P. Korambath,  W. Kurlancheek,  
 A. M. Lee,  M. S. Lee,  D. Liotard,  I. Lotan,  P. E. Maslen,  N. Nair,  
 D. Neuhauser,  R. Olson,  B. Peters,  J. Ritchie,  N. E. Schultz,  
 N. Shenvi,  A. C. Simmonett,  K. S. Thanthiriwatte,  Q. Wu,  W. Zhang

 Please cite Q-Chem as follows:
 Y. Shao et al., Mol. Phys. 113, 184-215 (2015)
 DOI: 10.1080/00268976.2014.952696

 Q-Chem 4.4.1 for Intel X86 EM64T Linux

 Parts of Q-Chem use Armadillo 5.200.1 (Boston Tea Smuggler).
 http://arma.sourceforge.net/

 Q-Chem begins on Tue Mar  7 05:06:17 2017  

Host: nid01545
0

     Scratch files written to /dev/shm/eg_qchem/qchem59496//
 Parallel job on  1  processors

Checking the input file for inconsistencies... 	...done.

--------------------------------------------------------------
User input:
--------------------------------------------------------------
$molecule
 1  2
 S           1.81042700       -1.22909900       -0.13996800
 C           3.10211600       -0.18861200       -0.13982200
 C           2.74845300        1.15163900       -0.14006900
 C           1.39169900        1.31613900       -0.14029100
 C           0.68906700        0.11310500       -0.14015500
 H           0.90454800        2.27578700       -0.14040700
 C          -0.68906700       -0.11310500       -0.14015500
 S          -1.56650645       -0.25693260        1.36595705
 C          -1.56553079       -0.25710755       -1.21349420
 C          -2.99055684       -0.49103732        0.54843081
 C          -2.86037598       -0.46977319       -0.83140654
 H          -3.69084439       -0.60649837       -1.49760902
 H           4.10439600       -0.57731800       -0.13934700
 H           3.47107900        1.94537000       -0.13983300
 H          -3.90435753       -0.64137177        1.09434804
 H          -1.24452341       -0.20456258       -2.23937610
$end


$rem
         jobtype = opt
        exchange = hf
           basis = cc-pvtz
  max_scf_cycles = 100
      mem_static = 6200
       mem_total = 62000
          method = mp2
$end


$opt
CONSTRAINT
tors 4 5 7 9 90.0
ENDCONSTRAINT
$end

--------------------------------------------------------------
 Atom   8: ( -1.6922976085,  0.8889759191,  0.8113548236)
         ->( -1.6922976049,  0.8889758611,  0.8113548852)
 Atom  10: ( -3.0652870525,  0.1595904877,  0.2334529588)
         ->( -3.0652870523,  0.1595904720,  0.2334529709)
 Atom  11: ( -2.8297225863, -0.7963303491, -0.7422903824)
         ->( -2.8297225889, -0.7963302927, -0.7422904363)
 Atom   9: ( -1.4961640278, -0.9243985729, -1.0125898860)
         ->( -1.4961640327, -0.9243985021, -1.0125899494)
 Atom   7: ( -0.6942773763, -0.0747328367, -0.2536244833)
         ->( -0.6942773773, -0.0747328200, -0.2536244880)
 Atom  16: ( -1.0951164888, -1.6108377857, -1.7379880273)
         ->( -1.0951164940, -1.6108376678, -1.7379881418)
 Atom  14: (  3.6160964247,  1.3550019050, -1.2131402126)
         ->(  3.6160964260,  1.3550019903, -1.2131401258)
 Atom  15: ( -4.0273348531,  0.4439975769,  0.6197616526)
         ->( -4.0273348562,  0.4439975331,  0.6197616882)
 ----------------------------------------------------------------
             Standard Nuclear Orientation (Angstroms)
    I     Atom           X                Y                Z
 ----------------------------------------------------------------
    1      S       1.6922976049    -0.8889758611     0.8113548852
    2      C       3.0652870523    -0.1595904720     0.2334529709
    3      C       2.8297225889     0.7963302927    -0.7422904363
    4      C       1.4961640327     0.9243985021    -1.0125899494
    5      C       0.6942773773     0.0747328200    -0.2536244880
    6      H       1.0951164940     1.6108376678    -1.7379881418
    7      C      -0.6942773773    -0.0747328200    -0.2536244880
    8      S      -1.6922976049     0.8889758611     0.8113548852
    9      C      -1.4961640327    -0.9243985021    -1.0125899494
   10      C      -3.0652870523     0.1595904720     0.2334529709
   11      C      -2.8297225889    -0.7963302927    -0.7422904363
   12      H      -3.6160964260    -1.3550019903    -1.2131401258
   13      H       4.0273348562    -0.4439975331     0.6197616882
   14      H       3.6160964260     1.3550019903    -1.2131401258
   15      H      -4.0273348562     0.4439975331     0.6197616882
   16      H      -1.0951164940    -1.6108376678    -1.7379881418
 ----------------------------------------------------------------
 Molecular Point Group                 C2    NOp =  2
 Largest Abelian Subgroup              C2    NOp =  2
 Nuclear Repulsion Energy =   639.2999694556 hartrees
 There are       43 alpha and       42 beta electrons
 Requested basis set is cc-pVTZ
 There are 140 shells and 392 basis functions

 Total QAlloc Memory Limit  62000 MB
 Mega-Array Size      6061 MB
 MEM_STATIC part      6200 MB
 A cutoff of  1.0D-11 yielded   8074 shell pairs
 There are     62938 function pairs (     82037 Cartesian)
 
 -------------------------------------------------------
 OpenMP Integral Computing Module                       
 Release: version 1.0, May 2013, Q-Chem Inc. Pittsburgh 
 -------------------------------------------------------
 Integral Job Info:
 Integral job number is                      11
 Integral operator is                         1
 short-range coefficients                     0
 long-range coefficients              100000000
 Omega coefficients                           0
 if combine SR and LR in K                    0
 Integral screening is                        0
 Integral computing path is                   2
 max size of driver memory is            800000
 size of driver memory is                776718
 size of scratch memory is             26248924
 max col of scratch BK array              10000
 max len of scratch array in speh3          662
 max len of scratch index in speh4           32
 max int batch size is                      520
 min int batch size is                       52
 fixed nKL is                                52
 max L of basis functions is                  3
 order of int derivative is                   0
 number of shells is                        140
 number of basis is                         448
 number of cartesian basis is               448
 number of contracted shell pairs          8074
 number of primitive shell pairs          28672
 maxK2 (contraction) of shell pair          121
 max number of K2 of shell pair               1
 max number of CS2 of shell pair           1066
 max number of PS2 of shell pair           3108
 mem total for path MDJ                  225820
 -------------------------------------------------------
 Smallest overlap matrix eigenvalue = 8.14E-05

 Scale SEOQF with 1.000000e-01/1.000000e-01/1.000000e-01

 Standard Electronic Orientation quadrupole field applied
 Nucleus-field energy     =     0.0000000124 hartrees
 Guess from superposition of atomic densities
 Warning:  Energy on first SCF cycle will be non-variational
 An unrestricted Hartree-Fock SCF calculation will be
 performed using Pulay DIIS extrapolation
 SCF converges when DIIS error is below 1.0E-08
 using 16 threads for integral computing 
 ---------------------------------------
  Cycle       Energy         DIIS Error
 ---------------------------------------
    1   -1106.2739071386      3.03E-02
    2   -1089.5518143295      1.68E-02
    3   -1100.2784956717      6.46E-03
    4   -1101.0040284324      3.64E-03
    5   -1101.2629387237      9.31E-04
    6   -1101.2862604337      2.58E-04
    7   -1101.2921322794      1.12E-04
    8   -1101.2952712139      7.77E-05
    9   -1101.2988258989      6.26E-05
   10   -1101.3023673007      4.17E-05
   11   -1101.3039623953      2.51E-05
   12   -1101.3049627156      1.57E-05
   13   -1101.3053675725      1.28E-05
   14   -1101.3056507301      1.19E-05
   15   -1101.3060847331      1.27E-05
   16   -1101.3064911321      1.11E-05
   17   -1101.3076534834      1.07E-05
   18   -1101.3080265275      7.32E-06
   19   -1101.3082521345      1.17E-05
   20   -1101.3083313891      3.87E-06
   21   -1101.3083021218      6.98E-06
   22   -1101.3083543159      1.83E-06
   23   -1101.3083558136      2.37E-06
   24   -1101.3083583219      1.67E-06
   25   -1101.3083595220      8.55E-07
   26   -1101.3083599875      2.41E-07
   27   -1101.3083600268      1.32E-07
   28   -1101.3083600526      5.84E-08
   29   -1101.3083600573      1.59E-08
   30   -1101.3083600578      5.31E-09 Convergence criterion met
 ---------------------------------------
 <S^2> = 0.9331
 SCF time:  CPU 1368.86 s  wall 85.64 s
 SCF   energy in the final basis set = -1101.3083600578
 Total energy in the final basis set = -1101.3083600578
 
 Components of the MP2 correlation energy:
        aaaa  correlation energy =        -0.2349747689 au
        abab  correlation energy =        -1.3155966121 au
        bbbb  correlation energy =        -0.2170997248 au
        non-Brillouin singles    =        -0.0000000000 au

 Total  MP2   correlation energy =        -1.7676711058 au
        MP2         total energy =     -1103.0760311636 au

  Entering Z-vector solver.
   1         0           1      0.000513    0.000513
   2         0           1      0.000459    0.000459
   3         0           1      0.000430    0.000430
   4         0           1      0.000462    0.000462
   5         0           1      0.000243    0.000243
   6         0           1      0.000139    0.000139
   7         0           1      0.000079    0.000079
   8         0           1      0.000045    0.000045
   9         0           1      0.000024    0.000024
  10         0           1      0.000012    0.000012
  11         0           1      0.000006    0.000006
  12         0           1      0.000003    0.000003
  13         0           1      0.000001    0.000001
  14         1           0      0.000000    0.000000    Roots Converged
 Warning:  Cannot save MP2 spin density
 
 --------------------------------------------------------------
             Orbital Energies (a.u.) and Symmetries
 --------------------------------------------------------------
 
 Alpha MOs, Unrestricted
 -- Occupied --                  
-92.163 -92.163 -11.474 -11.473 -11.452 -11.452 -11.431 -11.431
  1 B     1 A     2 A     2 B     3 B     3 A     4 B     4 A                  
-11.403 -11.403  -9.165  -9.165  -6.846  -6.846  -6.845  -6.845
  5 A     5 B     6 B     6 A     7 A     7 B     8 B     8 A                  
 -6.843  -6.843  -1.394  -1.362  -1.234  -1.187  -1.183  -1.129
  9 B     9 A    10 A    10 B    11 A    11 B    12 A    12 B                  
 -1.001  -0.945  -0.943  -0.905  -0.886  -0.823  -0.753  -0.751
 13 A    13 B    14 A    14 B    15 A    15 B    16 A    16 B                  
 -0.747  -0.735  -0.731  -0.701  -0.700  -0.659  -0.657  -0.541
 17 A    17 B    18 A    18 B    19 A    19 B    20 A    21 A                  
 -0.538  -0.510  -0.505
 20 B    22 A    21 B                                                          
 -- Virtual --                   
 -0.086  -0.086   0.003   0.005   0.018   0.022   0.029   0.043
 22 B    23 A    24 A    23 B    25 A    26 A    24 B    25 B                  
  0.049   0.052   0.072   0.081   0.097   0.100   0.159   0.163
 27 A    26 B    28 A    27 B    28 B    29 A    30 A    29 B                  
  0.196   0.199   0.210   0.213   0.232   0.238   0.261   0.262
 30 B    31 A    32 A    31 B    33 A    32 B    33 B    34 A                  
  0.280   0.286   0.289   0.302   0.304   0.307   0.319   0.331
 35 A    36 A    34 B    35 B    37 A    36 B    38 A    37 B                  
  0.349   0.352   0.370   0.384   0.386   0.388   0.405   0.415
 38 B    39 A    39 B    40 B    40 A    41 A    42 A    41 B                  
  0.422   0.426   0.435   0.442   0.454   0.457   0.467   0.467
 43 A    42 B    44 A    43 B    45 A    44 B    45 B    46 A                  
  0.477   0.481   0.496   0.510   0.515   0.525   0.529   0.557
 47 A    46 B    47 B    48 B    48 A    49 A    50 A    49 B                  
  0.584   0.597   0.622   0.624   0.637   0.644   0.683   0.686
 50 B    51 A    52 A    51 B    52 B    53 A    53 B    54 A                  
  0.693   0.707   0.717   0.720   0.743   0.765   0.770   0.784
 54 B    55 A    55 B    56 B    56 A    57 A    57 B    58 A                  
  0.805   0.811   0.841   0.842   0.861   0.872   0.889   0.899
 58 B    59 A    59 B    60 A    61 A    60 B    61 B    62 A                  
  0.930   0.944   0.952   0.954   0.969   0.990   1.010   1.012
 62 B    63 A    64 A    63 B    65 A    64 B    66 A    65 B                  
  1.031   1.035   1.053   1.056   1.075   1.096   1.126   1.137
 67 A    66 B    68 A    67 B    69 A    68 B    70 A    69 B                  
  1.150   1.152   1.155   1.186   1.204   1.217   1.236   1.268
 70 B    71 A    71 B    72 A    72 B    73 A    73 B    74 A                  
  1.270   1.290   1.310   1.328   1.339   1.351   1.365   1.370
 74 B    75 B    75 A    76 A    76 B    77 B    77 A    78 B                  
  1.383   1.394   1.400   1.426   1.431   1.445   1.458   1.485
 79 B    78 A    79 A    80 B    80 A    81 A    81 B    82 A                  
  1.508   1.517   1.523   1.559   1.568   1.591   1.608   1.659
 82 B    83 A    83 B    84 A    84 B    85 B    85 A    86 A                  
  1.660   1.691   1.712   1.719   1.728   1.746   1.750   1.784
 86 B    87 B    87 A    88 B    88 A    89 A    89 B    90 B                  
  1.793   1.856   1.862   1.899   1.900   1.949   1.956   1.972
 90 A    91 B    91 A    92 B    92 A    93 B    93 A    94 A                  
  1.989   2.015   2.028   2.036   2.057   2.065   2.077   2.089
 94 B    95 A    95 B    96 A    96 B    97 A    97 B    98 A                  
  2.120   2.128   2.152   2.202   2.247   2.259   2.279   2.304
 98 B    99 B    99 A   100 A   101 A   100 B   102 A   101 B                  
  2.330   2.339   2.344   2.350   2.361   2.373   2.392   2.417
102 B   103 A   103 B   104 B   104 A   105 A   105 B   106 A                  
  2.419   2.462   2.482   2.507   2.531   2.541   2.553   2.577
106 B   107 B   107 A   108 A   108 B   109 B   109 A   110 A                  
  2.593   2.604   2.616   2.616   2.620   2.691   2.714   2.724
110 B   111 A   111 B   112 A   112 B   113 A   114 A   113 B                  
  2.749   2.760   2.762   2.793   2.830   2.832   2.835   2.851
114 B   115 B   115 A   116 A   116 B   117 A   118 A   117 B                  
  2.883   2.890   2.898   2.964   2.977   2.994   3.017   3.018
118 B   119 A   119 B   120 B   120 A   121 B   121 A   122 A                  
  3.045   3.049   3.055   3.058   3.064   3.070   3.104   3.108
122 B   123 A   123 B   124 A   124 B   125 A   126 A   125 B                  
  3.109   3.117   3.139   3.155   3.163   3.198   3.202   3.222
127 A   126 B   127 B   128 A   128 B   129 B   129 A   130 B                  
  3.227   3.239   3.241   3.276   3.279   3.283   3.290   3.303
130 A   131 B   131 A   132 A   133 A   132 B   134 A   133 B                  
  3.307   3.323   3.338   3.347   3.348   3.351   3.356   3.364
135 A   134 B   136 A   137 A   135 B   136 B   137 B   138 A                  
  3.384   3.400   3.422   3.427   3.437   3.444   3.482   3.487
138 B   139 A   140 A   139 B   140 B   141 A   142 A   141 B                  
  3.523   3.527   3.559   3.562   3.576   3.580   3.588   3.626
143 A   142 B   143 B   144 A   144 B   145 A   146 A   147 A                  
  3.627   3.661   3.689   3.690   3.744   3.753   3.759   3.771
145 B   146 B   147 B   148 A   148 B   149 A   149 B   150 A                  
  3.803   3.812   3.819   3.848   3.856   3.863   3.881   3.894
150 B   151 A   151 B   152 A   153 A   152 B   154 A   153 B                  
  3.902   3.947   3.952   3.994   4.004   4.008   4.028   4.033
154 B   155 A   155 B   156 A   157 A   156 B   157 B   158 A                  
  4.040   4.050   4.059   4.090   4.112   4.121   4.135   4.150
158 B   159 A   160 A   159 B   160 B   161 A   161 B   162 A                  
  4.180   4.220   4.245   4.248   4.288   4.329   4.356   4.367
162 B   163 A   164 A   163 B   164 B   165 A   166 A   165 B                  
  4.371   4.384   4.436   4.446   4.478   4.496   4.504   4.520
166 B   167 A   168 A   167 B   169 A   168 B   170 A   169 B                  
  4.567   4.574   4.584   4.602   4.618   4.680   4.688   4.721
171 A   170 B   171 B   172 B   172 A   173 A   173 B   174 A                  
  4.734   4.777   4.828   4.847   4.871   4.894   4.908   4.921
174 B   175 A   176 A   175 B   176 B   177 A   178 A   177 B                  
  4.937   4.940   5.030   5.076   5.084   5.135   5.138   5.223
178 B   179 A   179 B   180 A   180 B   181 A   181 B   182 A                  
  5.231   5.261   5.266   5.334   5.397   5.422   5.500   5.502
182 B   183 B   183 A   184 A   184 B   185 A   185 B   186 A                  
  5.674   5.725   5.819   5.900   5.927   5.957   6.037   6.061
186 B   187 A   187 B   188 A   188 B   189 A   189 B   190 A                  
  6.065   6.372   6.394   6.568   6.603   9.349  10.769  11.929
190 B   191 A   191 B   192 A   192 B   193 A   193 B   194 A                  
 12.563  13.161  13.464  14.633  14.723
194 B   195 A   195 B   196 A   196 B                                          
 
 Beta MOs, Unrestricted
 -- Occupied --                  
-92.164 -92.164 -11.472 -11.470 -11.442 -11.442 -11.426 -11.426
  1 B     1 A     2 A     2 B     3 B     3 A     4 A     4 B                  
-11.407 -11.407  -9.166  -9.166  -6.847  -6.847  -6.846  -6.846
  5 B     5 A     6 B     6 A     7 A     7 B     8 B     8 A                  
 -6.845  -6.845  -1.379  -1.349  -1.216  -1.180  -1.179  -1.105
  9 B     9 A    10 A    10 B    11 A    11 B    12 A    12 B                  
 -0.991  -0.935  -0.931  -0.900  -0.884  -0.817  -0.744  -0.740
 13 A    13 B    14 A    14 B    15 A    15 B    16 A    17 A                  
 -0.739  -0.726  -0.721  -0.676  -0.670  -0.652  -0.652  -0.538
 16 B    17 B    18 A    19 A    18 B    20 A    19 B    21 A                  
 -0.529  -0.443
 20 B    22 A                                                                  
 -- Virtual --                   
 -0.232  -0.047  -0.033   0.008   0.010   0.023   0.031   0.032
 21 B    23 A    22 B    24 A    23 B    25 A    24 B    26 A                  
  0.052   0.052   0.065   0.072   0.082   0.102   0.102   0.161
 25 B    27 A    26 B    28 A    27 B    28 B    29 A    30 A                  
  0.165   0.199   0.201   0.213   0.216   0.233   0.240   0.266
 29 B    30 B    31 A    32 A    31 B    33 A    32 B    33 B                  
  0.269   0.284   0.294   0.301   0.306   0.308   0.312   0.327
 34 A    35 A    36 A    34 B    35 B    37 A    36 B    38 A                  
  0.335   0.354   0.357   0.382   0.393   0.395   0.399   0.416
 37 B    39 A    38 B    39 B    40 B    40 A    41 A    42 A                  
  0.420   0.425   0.430   0.442   0.452   0.455   0.462   0.471
 41 B    43 A    42 B    44 A    43 B    45 A    44 B    45 B                  
  0.472   0.481   0.493   0.498   0.516   0.519   0.532   0.535
 46 A    47 A    46 B    47 B    48 B    48 A    49 A    50 A                  
  0.559   0.588   0.600   0.625   0.629   0.638   0.648   0.687
 49 B    50 B    51 A    52 A    51 B    52 B    53 A    53 B                  
  0.692   0.696   0.711   0.722   0.727   0.745   0.769   0.770
 54 A    54 B    55 A    55 B    56 B    56 A    57 A    57 B                  
  0.789   0.810   0.815   0.845   0.848   0.862   0.874   0.895
 58 A    58 B    59 A    60 A    59 B    61 A    60 B    61 B                  
  0.902   0.933   0.950   0.955   0.961   0.972   0.992   1.015
 62 A    62 B    63 A    64 A    63 B    65 A    64 B    66 A                  
  1.015   1.031   1.038   1.055   1.058   1.076   1.103   1.132
 65 B    67 A    66 B    68 A    67 B    69 A    68 B    70 A                  
  1.140   1.151   1.157   1.161   1.191   1.207   1.225   1.244
 69 B    70 B    71 A    71 B    72 A    72 B    73 A    73 B                  
  1.274   1.275   1.293   1.315   1.331   1.345   1.353   1.365
 74 A    74 B    75 B    75 A    76 A    76 B    77 B    77 A                  
  1.374   1.383   1.397   1.405   1.428   1.435   1.446   1.463
 78 B    79 B    78 A    79 A    80 B    80 A    81 A    81 B                  
  1.490   1.511   1.520   1.524   1.564   1.572   1.596   1.609
 82 A    82 B    83 A    83 B    84 A    84 B    85 B    85 A                  
  1.659   1.660   1.692   1.712   1.720   1.729   1.746   1.753
 86 A    86 B    87 B    87 A    88 B    88 A    89 A    89 B                  
  1.783   1.798   1.857   1.864   1.900   1.901   1.952   1.956
 90 B    90 A    91 B    91 A    92 B    92 A    93 B    93 A                  
  1.973   1.991   2.016   2.030   2.036   2.058   2.066   2.078
 94 A    94 B    95 A    95 B    96 A    96 B    97 A    97 B                  
  2.103   2.130   2.133   2.154   2.208   2.247   2.257   2.281
 98 A    98 B    99 B    99 A   100 A   101 A   100 B   102 A                  
  2.308   2.333   2.344   2.352   2.354   2.364   2.388   2.399
101 B   102 B   103 A   103 B   104 B   104 A   105 A   105 B                  
  2.425   2.427   2.468   2.485   2.509   2.537   2.546   2.560
106 A   106 B   107 B   107 A   108 A   108 B   109 B   109 A                  
  2.581   2.601   2.610   2.619   2.622   2.626   2.700   2.718
110 A   110 B   111 A   111 B   112 A   112 B   113 A   114 A                  
  2.731   2.754   2.764   2.771   2.797   2.832   2.836   2.841
113 B   114 B   115 B   115 A   116 A   116 B   117 A   118 A                  
  2.858   2.887   2.892   2.906   2.973   2.979   3.000   3.019
117 B   118 B   119 A   119 B   120 B   120 A   121 B   121 A                  
  3.024   3.046   3.053   3.059   3.063   3.069   3.076   3.114
122 A   122 B   123 A   123 B   124 A   124 B   125 A   125 B                  
  3.115   3.115   3.121   3.146   3.158   3.170   3.202   3.206
126 A   127 A   126 B   127 B   128 A   128 B   129 B   129 A                  
  3.225   3.231   3.243   3.243   3.280   3.286   3.287   3.293
130 B   130 A   131 B   131 A   132 A   133 A   132 B   134 A                  
  3.310   3.311   3.331   3.348   3.351   3.353   3.356   3.367
133 B   135 A   134 B   136 A   135 B   137 A   136 B   137 B                  
  3.369   3.387   3.404   3.426   3.432   3.442   3.447   3.486
138 A   138 B   139 A   140 A   139 B   140 B   141 A   142 A                  
  3.489   3.527   3.532   3.563   3.568   3.582   3.583   3.593
141 B   143 A   142 B   143 B   144 A   144 B   145 A   146 A                  
  3.629   3.630   3.666   3.693   3.694   3.745   3.755   3.761
145 B   147 A   146 B   147 B   148 A   148 B   149 A   149 B                  
  3.775   3.808   3.815   3.822   3.851   3.858   3.865   3.885
150 A   150 B   151 A   151 B   152 A   153 A   152 B   154 A                  
  3.897   3.905   3.950   3.955   3.996   4.006   4.011   4.029
153 B   154 B   155 A   155 B   156 A   157 A   156 B   157 B                  
  4.035   4.042   4.052   4.061   4.092   4.114   4.122   4.137
158 A   158 B   159 A   160 A   159 B   160 B   161 A   161 B                  
  4.152   4.181   4.221   4.248   4.249   4.290   4.330   4.357
162 A   162 B   163 A   164 A   163 B   164 B   165 A   166 A                  
  4.368   4.372   4.385   4.441   4.446   4.480   4.499   4.505
165 B   166 B   167 A   168 A   167 B   169 A   168 B   170 A                  
  4.523   4.570   4.575   4.585   4.604   4.619   4.681   4.690
169 B   171 A   170 B   171 B   172 B   172 A   173 A   173 B                  
  4.723   4.736   4.780   4.830   4.849   4.873   4.895   4.910
174 A   174 B   175 A   176 A   175 B   176 B   177 A   178 A                  
  4.925   4.939   4.941   5.032   5.080   5.087   5.137   5.140
177 B   178 B   179 A   179 B   180 A   180 B   181 A   181 B                  
  5.225   5.232   5.261   5.267   5.335   5.398   5.423   5.500
182 A   182 B   183 B   183 A   184 A   184 B   185 A   185 B                  
  5.504   5.675   5.726   5.820   5.901   5.927   5.958   6.038
186 A   186 B   187 A   187 B   188 A   188 B   189 A   189 B                  
  6.061   6.065   6.373   6.395   6.568   6.603   9.352  10.772
190 A   190 B   191 A   191 B   192 A   192 B   193 A   193 B                  
 11.933  12.568  13.164  13.465  14.634  14.724
194 A   194 B   195 A   195 B   196 A   196 B                                  
 --------------------------------------------------------------
 
          Ground-State Mulliken Net Atomic Charges

     Atom                 Charge (a.u.)    Spin (a.u.)
  --------------------------------------------------------
      1 S                     0.289557      -0.021410
      2 C                    -0.120912      -0.385139
      3 C                    -0.142871       0.794835
      4 C                    -0.147398      -0.651634
      5 C                    -0.067124       0.739636
      6 H                     0.217186       0.041954
      7 C                    -0.067124       0.739636
      8 S                     0.289557      -0.021410
      9 C                    -0.147398      -0.651634
     10 C                    -0.120912      -0.385139
     11 C                    -0.142871       0.794835
     12 H                     0.226447      -0.053854
     13 H                     0.245115       0.035613
     14 H                     0.226447      -0.053854
     15 H                     0.245115       0.035613
     16 H                     0.217186       0.041954
  --------------------------------------------------------
  Sum of atomic charges =     1.000000
  Sum of spin   charges =     1.000000

 -----------------------------------------------------------------
                    Cartesian Multipole Moments
 -----------------------------------------------------------------
    Charge (ESU x 10^10)
                 4.8032
    Dipole Moment (Debye)
         X      -0.0000      Y      -0.0000      Z      -0.4316
       Tot       0.4316
    Quadrupole Moments (Debye-Ang)
        XX     -21.7888     XY       1.5612     YY     -64.3039
        XZ       0.0000     YZ       0.0000     ZZ     -64.6721
    Octopole Moments (Debye-Ang^2)
       XXX      -0.0000    XXY      -0.0000    XYY      -0.0000
       YYY      -0.0000    XXZ       5.1076    XYZ     -19.5189
       YYZ      -5.8692    XZZ      -0.0000    YZZ      -0.0000
       ZZZ       0.5208
    Hexadecapole Moments (Debye-Ang^3)
      XXXX   -1251.9148   XXXY       8.5375   XXYY    -344.0537
      XYYY       0.3206   YYYY    -315.4652   XXXZ       0.0000
      XXYZ       0.0000   XYYZ       0.0000   YYYZ       0.0000
      XXZZ    -347.3303   XYZZ      10.4362   YYZZ     -87.9984
      XZZZ       0.0000   YZZZ       0.0000   ZZZZ    -312.5682
 -----------------------------------------------------------------
 DrvMan is completing analytic gradient of the MP2 energy
 MP2 relaxed dipole moment
            1
    1  -0.0000000
    2  -0.0000000
    3  -0.1697882
	Magnitude:	 0.170 au	 0.432 Debye
 MP2 energy read as -1103.076031
 Full Analytical Gradient of MP2 Energy (in au.)
             1             2             3             4             5
    1   -0.01804898    0.01022064   -0.00320373    0.01103984   -0.04470461
    2    0.00474378    0.00654420    0.00496837   -0.00070561   -0.01573365
    3    0.00881709   -0.00711038    0.00222398   -0.01139210    0.01076614
             6             7             8             9            10
    1    0.00125096    0.04470461    0.01804898   -0.01103984   -0.01022064
    2    0.00041679    0.01573365   -0.00474378    0.00070561   -0.00654420
    3   -0.00048851    0.01076614    0.00881709   -0.01139210   -0.00711038
            11            12            13            14            15
    1    0.00320373    0.00075856   -0.00029980   -0.00075856    0.00029980
    2   -0.00496837   -0.00176218   -0.00425129    0.00176218    0.00425129
    3    0.00222398    0.00162579   -0.00444201    0.00162579   -0.00444201
            16
    1   -0.00125096
    2   -0.00041679
    3   -0.00048851
 Gradient time:  CPU 1.50 s  wall 0.10 s
 Geometry Optimization Parameters
   NAtoms,    NIC,     NZ,  NCons,   NDum,   NFix, NCnnct, MaxDiis
       16     111       0       1       0       0       0       0


** CONSTRAINED OPTIMIZATION IN DELOCALIZED INTERNAL COORDINATES **
   Searching for a Minimum

   Optimization Cycle:   1

                       Coordinates (Angstroms)
     ATOM                X               Y               Z
      1  S         1.6922976049   -0.8889758611    0.8113548852
      2  C         3.0652870523   -0.1595904720    0.2334529709
      3  C         2.8297225889    0.7963302927   -0.7422904363
      4  C         1.4961640327    0.9243985021   -1.0125899494
      5  C         0.6942773773    0.0747328200   -0.2536244880
      6  H         1.0951164940    1.6108376678   -1.7379881418
      7  C        -0.6942773773   -0.0747328200   -0.2536244880
      8  S        -1.6922976049    0.8889758611    0.8113548852
      9  C        -1.4961640327   -0.9243985021   -1.0125899494
     10  C        -3.0652870523    0.1595904720    0.2334529709
     11  C        -2.8297225889   -0.7963302927   -0.7422904363
     12  H        -3.6160964260   -1.3550019903   -1.2131401258
     13  H         4.0273348562   -0.4439975331    0.6197616882
     14  H         3.6160964260    1.3550019903   -1.2131401258
     15  H        -4.0273348562    0.4439975331    0.6197616882
     16  H        -1.0951164940   -1.6108376678   -1.7379881418
   Point Group: c2    Number of degrees of freedom:    22


   Energy is  -1103.076031164

              Constraints and their Current Values
                                        Value     Constraint
   Dihedral:        4   5   7   9       90.000       90.000

 Attempting to Generate Delocalized Internal Coordinates

 21 Hessian modes will be used to form the next step
  Hessian Eigenvalues:
     0.045000    0.045000    0.045000    0.045000    0.045000    0.045000
     0.160000    0.160000    0.160000    0.221335    0.237679    0.250000
     0.299411    0.364554    0.366034    0.368031    0.392996    0.445237
     0.461927    0.467905    0.501257

 Minimum Search - Taking Simple RFO Step
 Searching for Lamda that Minimizes Along All modes
 Value Taken    Lamda =  -0.01164035
 Calculated Step too Large.  Step scaled by  0.928506
 Step Taken.  Stepsize is  0.300000

                             Maximum     Tolerance    Cnvgd?
         Gradient           0.022768      0.000300      NO
         Displacement       0.238654      0.001200      NO
         Energy change     *********      0.000001      NO


 New Cartesian Coordinates Obtained by Inverse Iteration

 Displacement from previous Coordinates is:  0.305488
 ----------------------------------------------------------------
             Standard Nuclear Orientation (Angstroms)
    I     Atom           X                Y                Z
 ----------------------------------------------------------------
    1      S       1.7380973759    -0.9305299461     0.7623064743
    2      C       3.0899420944    -0.1576251744     0.2416800437
    3      C       2.8493245582     0.7812263868    -0.7505771832
    4      C       1.5094129255     0.9258915371    -1.0077324598
    5      C       0.7168066730     0.0809908781    -0.2571629492
    6      H       1.0998041424     1.6177088949    -1.7229170351
    7      C      -0.7168066730    -0.0809908781    -0.2571629492
    8      S      -1.7380973759     0.9305299461     0.7623064743
    9      C      -1.5094129255    -0.9258915371    -1.0077324598
   10      C      -3.0899420944     0.1576251744     0.2416800437
   11      C      -2.8493245582    -0.7812263868    -0.7505771832
   12      H      -3.6364861540    -1.3397974943    -1.2212689522
   13      H       4.0497006780    -0.4047883949     0.6606084647
   14      H       3.6364861540     1.3397974943    -1.2212689522
   15      H      -4.0497006780     0.4047883949     0.6606084647
   16      H      -1.0998041424    -1.6177088949    -1.7229170351
 ----------------------------------------------------------------
 Molecular Point Group                 C2    NOp =  2
 Largest Abelian Subgroup              C2    NOp =  2
 Nuclear Repulsion Energy =   636.2621218668 hartrees
 There are       43 alpha and       42 beta electrons
 Applying Cartesian multipole field
    Component          Value
    ---------          -----
     (2,0,0)        1.00000E-11
     (0,2,0)        2.00000E-11
     (0,0,2)       -3.00000E-11
 Nucleus-field energy     =     0.0000000131 hartrees
 Requested basis set is cc-pVTZ
 There are 140 shells and 392 basis functions
 A cutoff of  1.0D-11 yielded   8055 shell pairs
 There are     62707 function pairs (     81744 Cartesian)
 Smallest overlap matrix eigenvalue = 9.02E-05
 Guess MOs from SCF MO coefficient file
 Reading MOs from coefficient file
 Reading MOs from coefficient file
 An unrestricted Hartree-Fock SCF calculation will be
 performed using Pulay DIIS extrapolation
 SCF converges when DIIS error is below 1.0E-08
 Geometry optimization detected.  Setting ReadMinima to 0
 Setting SaveMinima to 0
 using 16 threads for integral computing 
 ---------------------------------------
  Cycle       Energy         DIIS Error
 ---------------------------------------
    1   -1101.3127019719      1.08E-03
    2   -1101.3098912484      1.08E-04
    3   -1101.3104023156      5.10E-05
    4   -1101.3105102531      2.49E-05
    5   -1101.3105662586      1.01E-05
    6   -1101.3105919102      6.25E-06
    7   -1101.3106127473      4.38E-06
    8   -1101.3106421017      3.64E-06
    9   -1101.3106727149      2.77E-06
   10   -1101.3106994857      2.07E-06
   11   -1101.3107166154      1.40E-06
   12   -1101.3107256683      9.59E-07
   13   -1101.3107287099      5.33E-07
   14   -1101.3107294919      2.36E-07
   15   -1101.3107295767      1.12E-07
   16   -1101.3107295927      4.57E-08
   17   -1101.3107295948      1.82E-08
   18   -1101.3107295950      7.49E-09 Convergence criterion met
 ---------------------------------------
 <S^2> = 0.8760
 SCF time:  CPU 1423.86 s  wall 89.05 s
 SCF   energy in the final basis set = -1101.3107295950
 Total energy in the final basis set = -1101.3107295950
 
 Components of the MP2 correlation energy:
        aaaa  correlation energy =        -0.2345907065 au
        abab  correlation energy =        -1.3184910710 au
        bbbb  correlation energy =        -0.2185948822 au
        non-Brillouin singles    =        -0.0000000000 au

 Total  MP2   correlation energy =        -1.7716766597 au
        MP2         total energy =     -1103.0824062547 au

  Entering Z-vector solver.
   1         0           1      0.000461    0.000461
   2         0           1      0.000387    0.000387
   3         0           1      0.000355    0.000355
   4         0           1      0.000421    0.000421
   5         0           1      0.000262    0.000262
   6         0           1      0.000171    0.000171
   7         0           1      0.000105    0.000105
   8         0           1      0.000058    0.000058
   9         0           1      0.000029    0.000029
  10         0           1      0.000015    0.000015
  11         0           1      0.000008    0.000008
  12         0           1      0.000004    0.000004
  13         0           1      0.000002    0.000002
  14         0           1      0.000001    0.000001
  15         1           0      0.000000    0.000000    Roots Converged
 Warning:  Cannot save MP2 spin density
 
 --------------------------------------------------------------
             Orbital Energies (a.u.) and Symmetries
 --------------------------------------------------------------
 
 Alpha MOs, Unrestricted
 -- Occupied --                  
-92.162 -92.162 -11.476 -11.475 -11.453 -11.453 -11.428 -11.428
  1 B     1 A     2 A     2 B     3 B     3 A     4 B     4 A                  
-11.406 -11.406  -9.164  -9.164  -6.845  -6.845  -6.844  -6.844
  5 A     5 B     6 B     6 A     7 A     7 B     8 A     8 B                  
 -6.842  -6.842  -1.391  -1.364  -1.229  -1.188  -1.181  -1.130
  9 B     9 A    10 A    10 B    11 A    11 B    12 A    12 B                  
 -0.993  -0.945  -0.941  -0.905  -0.884  -0.824  -0.753  -0.748
 13 A    13 B    14 A    14 B    15 A    15 B    16 A    17 A                  
 -0.747  -0.736  -0.728  -0.706  -0.699  -0.658  -0.652  -0.544
 16 B    17 B    18 A    18 B    19 A    19 B    20 A    21 A                  
 -0.536  -0.511  -0.503
 20 B    22 A    21 B                                                          
 -- Virtual --                   
 -0.083  -0.082   0.000   0.006   0.020   0.025   0.029   0.043
 22 B    23 A    24 A    23 B    25 A    26 A    24 B    25 B                  
  0.049   0.051   0.071   0.081   0.094   0.103   0.161   0.166
 27 A    26 B    28 A    27 B    28 B    29 A    30 A    29 B                  
  0.193   0.200   0.207   0.210   0.231   0.237   0.260   0.260
 30 B    31 A    31 B    32 A    33 A    32 B    33 B    34 A                  
  0.283   0.283   0.284   0.301   0.311   0.313   0.323   0.333
 35 A    34 B    36 A    35 B    37 A    36 B    38 A    37 B                  
  0.345   0.354   0.370   0.377   0.385   0.385   0.409   0.418
 38 B    39 A    39 B    40 B    40 A    41 A    42 A    41 B                  
  0.419   0.421   0.431   0.446   0.454   0.455   0.462   0.466
 43 A    42 B    44 A    43 B    44 B    45 A    45 B    46 A                  
  0.479   0.482   0.495   0.510   0.511   0.525   0.529   0.554
 47 A    46 B    47 B    48 B    48 A    49 A    50 A    49 B                  
  0.581   0.598   0.621   0.625   0.628   0.655   0.679   0.686
 50 B    51 A    52 A    51 B    52 B    53 A    53 B    54 A                  
  0.691   0.705   0.708   0.725   0.742   0.760   0.771   0.781
 54 B    55 B    55 A    56 B    56 A    57 A    57 B    58 A                  
  0.810   0.817   0.833   0.837   0.861   0.864   0.886   0.904
 58 B    59 A    60 A    59 B    61 A    60 B    61 B    62 A                  
  0.928   0.939   0.953   0.961   0.966   0.988   1.013   1.014
 62 B    63 A    64 A    63 B    65 A    64 B    66 A    65 B                  
  1.029   1.031   1.056   1.058   1.071   1.088   1.129   1.135
 66 B    67 A    68 A    67 B    69 A    68 B    70 A    69 B                  
  1.148   1.153   1.153   1.186   1.199   1.219   1.234   1.265
 70 B    71 B    71 A    72 A    72 B    73 A    73 B    74 B                  
  1.265   1.291   1.307   1.328   1.339   1.350   1.362   1.372
 74 A    75 B    75 A    76 A    76 B    77 B    77 A    78 B                  
  1.387   1.394   1.399   1.420   1.429   1.447   1.463   1.479
 79 B    78 A    79 A    80 A    80 B    81 A    81 B    82 A                  
  1.501   1.514   1.518   1.566   1.573   1.586   1.610   1.655
 82 B    83 B    83 A    84 A    84 B    85 B    85 A    86 A                  
  1.664   1.694   1.702   1.715   1.731   1.741   1.745   1.773
 86 B    87 B    87 A    88 B    88 A    89 B    89 A    90 B                  
  1.785   1.843   1.864   1.901   1.902   1.952   1.957   1.970
 90 A    91 B    91 A    92 B    92 A    93 A    93 B    94 A                  
  1.985   2.014   2.026   2.042   2.053   2.060   2.064   2.091
 94 B    95 A    95 B    96 A    97 A    96 B    97 B    98 A                  
  2.119   2.127   2.155   2.187   2.243   2.256   2.277   2.305
 98 B    99 B    99 A   100 A   101 A   100 B   102 A   101 B                  
  2.318   2.331   2.343   2.349   2.360   2.377   2.391   2.416
102 B   103 A   103 B   104 B   104 A   105 A   105 B   106 B                  
  2.421   2.465   2.474   2.511   2.513   2.542   2.562   2.567
106 A   107 B   107 A   108 A   108 B   109 B   109 A   110 A                  
  2.590   2.601   2.614   2.623   2.634   2.693   2.716   2.725
110 B   111 A   111 B   112 A   112 B   113 A   114 A   113 B                  
  2.742   2.751   2.758   2.786   2.830   2.831   2.835   2.855
114 B   115 B   115 A   116 A   116 B   117 A   118 A   117 B                  
  2.878   2.887   2.898   2.946   2.972   2.987   3.014   3.017
119 A   118 B   119 B   120 B   120 A   121 B   121 A   122 A                  
  3.039   3.051   3.055   3.057   3.066   3.070   3.097   3.100
122 B   123 A   124 A   123 B   124 B   125 A   126 A   127 A                  
  3.111   3.121   3.142   3.157   3.162   3.186   3.194   3.216
125 B   126 B   127 B   128 B   128 A   129 A   129 B   130 B                  
  3.233   3.237   3.240   3.275   3.279   3.285   3.291   3.297
130 A   131 B   131 A   132 A   133 A   132 B   134 A   133 B                  
  3.314   3.331   3.334   3.344   3.348   3.351   3.357   3.370
135 A   134 B   136 A   137 A   135 B   136 B   137 B   138 A                  
  3.380   3.404   3.417   3.420   3.432   3.432   3.477   3.489
138 B   139 A   140 A   139 B   141 A   140 B   142 A   141 B                  
  3.518   3.531   3.547   3.551   3.567   3.578   3.591   3.623
143 A   142 B   144 A   143 B   145 A   144 B   146 A   145 B                  
  3.630   3.665   3.693   3.702   3.735   3.741   3.746   3.759
147 A   146 B   147 B   148 A   148 B   149 A   149 B   150 A                  
  3.799   3.808   3.813   3.846   3.854   3.860   3.875   3.892
150 B   151 B   151 A   152 A   153 A   152 B   154 A   153 B                  
  3.903   3.938   3.940   3.993   4.003   4.005   4.028   4.028
154 B   155 A   155 B   156 A   156 B   157 A   158 A   157 B                  
  4.046   4.047   4.055   4.082   4.102   4.117   4.138   4.149
158 B   159 A   160 A   159 B   160 B   161 A   161 B   162 A                  
  4.177   4.212   4.230   4.245   4.288   4.320   4.357   4.363
162 B   163 A   164 A   163 B   164 B   165 A   166 A   165 B                  
  4.371   4.376   4.435   4.437   4.473   4.488   4.495   4.519
166 B   167 A   168 A   167 B   169 A   168 B   170 A   169 B                  
  4.565   4.567   4.572   4.612   4.615   4.666   4.679   4.716
170 B   171 A   171 B   172 B   172 A   173 A   173 B   174 A                  
  4.729   4.774   4.799   4.821   4.864   4.891   4.900   4.920
174 B   175 A   176 A   175 B   176 B   177 A   178 A   177 B                  
  4.921   4.926   5.019   5.066   5.079   5.122   5.126   5.213
178 B   179 A   179 B   180 A   180 B   181 B   181 A   182 A                  
  5.222   5.255   5.258   5.328   5.391   5.426   5.499   5.500
182 B   183 A   183 B   184 A   184 B   185 A   186 A   185 B                  
  5.663   5.715   5.813   5.889   5.918   5.961   6.036   6.056
186 B   187 A   187 B   188 A   188 B   189 A   189 B   190 A                  
  6.064   6.384   6.398   6.555   6.600   9.298  10.540  11.932
190 B   191 A   191 B   192 A   192 B   193 A   193 B   194 A                  
 12.170  13.225  13.304  14.615  14.689
194 B   195 A   195 B   196 A   196 B                                          
 
 Beta MOs, Unrestricted
 -- Occupied --                  
-92.163 -92.163 -11.472 -11.472 -11.444 -11.444 -11.425 -11.425
  1 B     1 A     2 A     2 B     3 A     3 B     4 A     4 B                  
-11.409 -11.409  -9.165  -9.165  -6.845  -6.845  -6.845  -6.845
  5 B     5 A     6 B     6 A     7 A     7 B     8 B     8 A                  
 -6.844  -6.844  -1.376  -1.351  -1.206  -1.182  -1.180  -1.107
  9 A     9 B    10 A    10 B    11 A    11 B    12 A    12 B                  
 -0.984  -0.935  -0.930  -0.900  -0.883  -0.818  -0.742  -0.740
 13 A    13 B    14 A    14 B    15 A    15 B    16 A    17 A                  
 -0.740  -0.724  -0.717  -0.677  -0.671  -0.652  -0.647  -0.535
 16 B    17 B    18 A    19 A    18 B    19 B    20 A    21 A                  
 -0.526  -0.442
 20 B    22 A                                                                  
 -- Virtual --                   
 -0.233  -0.044  -0.035   0.007   0.010   0.023   0.031   0.034
 21 B    23 A    22 B    24 A    23 B    25 A    24 B    26 A                  
  0.052   0.052   0.064   0.072   0.083   0.100   0.106   0.163
 25 B    27 A    26 B    28 A    27 B    28 B    29 A    30 A                  
  0.168   0.196   0.202   0.210   0.214   0.232   0.239   0.265
 29 B    30 B    31 A    31 B    32 A    33 A    32 B    33 B                  
  0.266   0.285   0.293   0.296   0.306   0.317   0.318   0.330
 34 A    35 A    36 A    34 B    35 B    36 B    37 A    38 A                  
  0.336   0.352   0.356   0.377   0.390   0.391   0.397   0.418
 37 B    38 B    39 A    39 B    40 B    40 A    41 A    42 A                  
  0.423   0.424   0.425   0.440   0.456   0.457   0.459   0.465
 43 A    41 B    42 B    44 A    43 B    45 A    44 B    45 B                  
  0.470   0.483   0.490   0.499   0.516   0.520   0.531   0.536
 46 A    47 A    46 B    47 B    48 A    48 B    49 A    50 A                  
  0.557   0.585   0.602   0.625   0.629   0.630   0.658   0.682
 49 B    50 B    51 A    52 A    51 B    52 B    53 A    53 B                  
  0.691   0.694   0.709   0.712   0.732   0.745   0.764   0.772
 54 A    54 B    55 B    55 A    56 B    56 A    57 A    57 B                  
  0.784   0.814   0.822   0.836   0.844   0.862   0.867   0.892
 58 A    58 B    59 A    60 A    59 B    61 A    60 B    61 B                  
  0.907   0.931   0.945   0.957   0.967   0.970   0.990   1.017
 62 A    62 B    63 A    64 A    63 B    65 A    64 B    65 B                  
  1.019   1.031   1.033   1.058   1.060   1.072   1.095   1.134
 66 A    67 A    66 B    68 A    67 B    69 A    68 B    70 A                  
  1.139   1.149   1.158   1.158   1.192   1.202   1.226   1.241
 69 B    70 B    71 B    71 A    72 A    72 B    73 A    73 B                  
  1.270   1.271   1.293   1.311   1.331   1.344   1.353   1.363
 74 B    74 A    75 B    75 A    76 A    76 B    77 B    77 A                  
  1.375   1.389   1.397   1.404   1.423   1.432   1.449   1.467
 78 B    79 B    78 A    79 A    80 A    80 B    81 A    81 B                  
  1.483   1.505   1.516   1.521   1.570   1.577   1.590   1.612
 82 A    82 B    83 B    83 A    84 A    84 B    85 B    85 A                  
  1.656   1.664   1.694   1.702   1.717   1.732   1.743   1.746
 86 A    86 B    87 B    87 A    88 B    88 A    89 B    89 A                  
  1.774   1.790   1.845   1.866   1.902   1.903   1.952   1.959
 90 B    90 A    91 B    91 A    92 B    92 A    93 A    93 B                  
  1.972   1.987   2.015   2.027   2.043   2.054   2.062   2.066
 94 A    94 B    95 A    95 B    96 A    97 A    96 B    97 B                  
  2.103   2.124   2.136   2.158   2.192   2.245   2.256   2.279
 98 A    98 B    99 B    99 A   100 A   101 A   100 B   102 A                  
  2.308   2.322   2.336   2.347   2.355   2.362   2.391   2.398
101 B   102 B   103 A   103 B   104 B   104 A   105 A   105 B                  
  2.424   2.428   2.471   2.479   2.513   2.522   2.546   2.568
106 B   106 A   107 B   107 A   108 A   108 B   109 B   109 A                  
  2.572   2.598   2.608   2.616   2.628   2.640   2.702   2.718
110 A   110 B   111 A   111 B   112 A   112 B   113 A   114 A                  
  2.733   2.747   2.754   2.767   2.790   2.832   2.834   2.842
113 B   114 B   115 B   115 A   116 A   116 B   117 A   118 A                  
  2.861   2.881   2.892   2.904   2.954   2.975   2.993   3.017
117 B   119 A   118 B   119 B   120 B   120 A   121 B   121 A                  
  3.022   3.041   3.056   3.058   3.059   3.072   3.075   3.104
122 A   122 B   123 A   123 B   124 A   124 B   125 A   126 A                  
  3.109   3.116   3.127   3.148   3.164   3.165   3.190   3.198
127 A   125 B   126 B   127 B   128 B   128 A   129 A   129 B                  
  3.221   3.238   3.241   3.244   3.280   3.284   3.288   3.293
130 B   130 A   131 B   131 A   132 A   133 A   132 B   134 A                  
  3.302   3.318   3.336   3.340   3.352   3.352   3.358   3.365
133 B   135 A   134 B   136 A   137 A   135 B   136 B   137 B                  
  3.377   3.385   3.409   3.421   3.424   3.435   3.437   3.482
138 A   138 B   139 A   140 A   139 B   141 A   140 B   142 A                  
  3.490   3.522   3.535   3.552   3.557   3.570   3.583   3.595
141 B   143 A   142 B   144 A   143 B   145 A   144 B   146 A                  
  3.626   3.634   3.670   3.698   3.706   3.737   3.743   3.749
145 B   147 A   146 B   147 B   148 A   148 B   149 A   149 B                  
  3.764   3.804   3.811   3.815   3.849   3.857   3.862   3.878
150 A   150 B   151 B   151 A   152 A   153 A   152 B   154 A                  
  3.895   3.906   3.941   3.943   3.994   4.006   4.007   4.029
153 B   154 B   155 A   155 B   156 A   156 B   157 A   157 B                  
  4.030   4.048   4.048   4.057   4.084   4.104   4.118   4.140
158 A   158 B   159 A   160 A   159 B   160 B   161 A   161 B                  
  4.151   4.179   4.213   4.233   4.246   4.291   4.321   4.359
162 A   162 B   163 A   164 A   163 B   164 B   165 A   166 A                  
  4.364   4.372   4.377   4.438   4.440   4.475   4.492   4.497
165 B   166 B   167 A   167 B   168 A   169 A   168 B   170 A                  
  4.522   4.567   4.569   4.573   4.613   4.615   4.667   4.681
169 B   170 B   171 A   171 B   172 B   172 A   173 A   173 B                  
  4.717   4.730   4.777   4.802   4.823   4.866   4.893   4.901
174 A   174 B   175 A   176 A   175 B   176 B   177 A   178 A                  
  4.922   4.924   4.927   5.021   5.070   5.082   5.124   5.128
177 B   178 B   179 A   179 B   180 A   180 B   181 B   181 A                  
  5.214   5.223   5.256   5.259   5.329   5.392   5.427   5.501
182 A   182 B   183 A   183 B   184 A   184 B   185 A   186 A                  
  5.501   5.664   5.715   5.814   5.889   5.919   5.962   6.037
185 B   186 B   187 A   187 B   188 A   188 B   189 A   189 B                  
  6.056   6.064   6.385   6.399   6.556   6.600   9.301  10.543
190 A   190 B   191 A   191 B   192 A   192 B   193 A   193 B                  
 11.936  12.175  13.228  13.306  14.616  14.690
194 A   194 B   195 A   195 B   196 A   196 B                                  
 --------------------------------------------------------------
 
          Ground-State Mulliken Net Atomic Charges

     Atom                 Charge (a.u.)    Spin (a.u.)
  --------------------------------------------------------
      1 S                     0.297365       0.023960
      2 C                    -0.132288      -0.410039
      3 C                    -0.118372       0.851441
      4 C                    -0.167557      -0.675727
      5 C                    -0.064502       0.689135
      6 H                     0.215141       0.041341
      7 C                    -0.064502       0.689135
      8 S                     0.297365       0.023960
      9 C                    -0.167557      -0.675727
     10 C                    -0.132288      -0.410039
     11 C                    -0.118372       0.851441
     12 H                     0.225329      -0.054818
     13 H                     0.244883       0.034708
     14 H                     0.225329      -0.054818
     15 H                     0.244883       0.034708
     16 H                     0.215141       0.041341
  --------------------------------------------------------
  Sum of atomic charges =     1.000000
  Sum of spin   charges =     1.000000

 -----------------------------------------------------------------
                    Cartesian Multipole Moments
 -----------------------------------------------------------------
    Charge (ESU x 10^10)
                 4.8032
    Dipole Moment (Debye)
         X      -0.0000      Y      -0.0000      Z      -0.4108
       Tot       0.4108
    Quadrupole Moments (Debye-Ang)
        XX     -20.7005     XY       1.5670     YY     -64.1462
        XZ       0.0000     YZ       0.0000     ZZ     -65.0221
    Octopole Moments (Debye-Ang^2)
       XXX      -0.0000    XXY      -0.0000    XYY      -0.0000
       YYY      -0.0000    XXZ       6.8996    XYZ     -19.0451
       YYZ      -4.3734    XZZ      -0.0000    YZZ      -0.0000
       ZZZ       3.7996
    Hexadecapole Moments (Debye-Ang^3)
      XXXX   -1277.4217   XXXY      24.2228   XXYY    -353.1857
      XYYY       6.2406   YYYY    -323.7226   XXXZ       0.0000
      XXYZ       0.0000   XYYZ       0.0000   YYYZ       0.0000
      XXZZ    -349.5748   XYZZ      13.1083   YYZZ     -88.6494
      XZZZ       0.0000   YZZZ       0.0000   ZZZZ    -303.3512
 -----------------------------------------------------------------
 DrvMan is completing analytic gradient of the MP2 energy
 MP2 relaxed dipole moment
            1
    1  -0.0000001
    2  -0.0000000
    3  -0.1616370
	Magnitude:	 0.162 au	 0.411 Debye
 MP2 energy read as -1103.082406
 Full Analytical Gradient of MP2 Energy (in au.)
             1             2             3             4             5
    1   -0.00659654    0.00358106   -0.00215637    0.00795025   -0.00609532
    2    0.00319153    0.01197277   -0.00690292   -0.00344262   -0.00439181
    3   -0.00191185   -0.00586938    0.00320536   -0.00431963    0.00941571
             6             7             8             9            10
    1   -0.00022466    0.00609532    0.00659654   -0.00795024   -0.00358106
    2   -0.00006941    0.00439181   -0.00319153    0.00344262   -0.01197277
    3   -0.00027528    0.00941571   -0.00191185   -0.00431963   -0.00586938
            11            12            13            14            15
    1    0.00215637    0.00037627    0.00019651   -0.00037627   -0.00019651
    2    0.00690292   -0.00113710   -0.00216773    0.00113710    0.00216773
    3    0.00320536    0.00144588   -0.00169080    0.00144588   -0.00169080
            16
    1    0.00022466
    2    0.00006941
    3   -0.00027528
 Gradient time:  CPU 1.46 s  wall 0.10 s
 Geometry Optimization Parameters
   NAtoms,    NIC,     NZ,  NCons,   NDum,   NFix, NCnnct, MaxDiis
       16     111       0       1       0       0       0       0

 Cartesian Hessian Update
 Hessian Updated using BFGS Update


** CONSTRAINED OPTIMIZATION IN DELOCALIZED INTERNAL COORDINATES **
   Searching for a Minimum

   Optimization Cycle:   2

                       Coordinates (Angstroms)
     ATOM                X               Y               Z
      1  S         1.7380973759   -0.9305299461    0.7623064743
      2  C         3.0899420944   -0.1576251744    0.2416800437
      3  C         2.8493245582    0.7812263868   -0.7505771832
      4  C         1.5094129255    0.9258915371   -1.0077324598
      5  C         0.7168066730    0.0809908781   -0.2571629492
      6  H         1.0998041424    1.6177088949   -1.7229170351
      7  C        -0.7168066730   -0.0809908781   -0.2571629492
      8  S        -1.7380973759    0.9305299461    0.7623064743
      9  C        -1.5094129255   -0.9258915371   -1.0077324598
     10  C        -3.0899420944    0.1576251744    0.2416800437
     11  C        -2.8493245582   -0.7812263868   -0.7505771832
     12  H        -3.6364861540   -1.3397974943   -1.2212689522
     13  H         4.0497006780   -0.4047883949    0.6606084647
     14  H         3.6364861540    1.3397974943   -1.2212689522
     15  H        -4.0497006780    0.4047883949    0.6606084647
     16  H        -1.0998041424   -1.6177088949   -1.7229170351
   Point Group: c2    Number of degrees of freedom:    22


   Energy is  -1103.082406255

              Constraints and their Current Values
                                        Value     Constraint
   Dihedral:        4   5   7   9       90.000       90.000
 Hessian Updated using BFGS Update

 16 Hessian modes will be used to form the next step
  Hessian Eigenvalues:
     0.041328    0.051136    0.159822    0.160371    0.219201    0.240480
     0.246087    0.284133    0.364229    0.365870    0.366562    0.368970
     0.403377    0.461615    0.500136    0.550980

 Minimum Search - Taking Simple RFO Step
 Searching for Lamda that Minimizes Along All modes
 Value Taken    Lamda =  -0.00246410
 Step Taken.  Stepsize is  0.158780

                             Maximum     Tolerance    Cnvgd?
         Gradient           0.011976      0.000300      NO
         Displacement       0.100419      0.001200      NO
         Energy change     -0.006375      0.000001      NO


 New Cartesian Coordinates Obtained by Inverse Iteration

 Displacement from previous Coordinates is:  0.189275
 ----------------------------------------------------------------
             Standard Nuclear Orientation (Angstroms)
    I     Atom           X                Y                Z
 ----------------------------------------------------------------
    1      S       1.7359399880    -0.9489755680     0.7393908380
    2      C       3.0815414410    -0.1702469276     0.2497565837
    3      C       2.8520690430     0.7868892497    -0.7459076254
    4      C       1.5098308915     0.9425240093    -1.0174878213
    5      C       0.7215457331     0.0949649303    -0.2800370666
    6      H       1.1067216694     1.6404757751    -1.7297623018
    7      C      -0.7215457331    -0.0949649303    -0.2800370666
    8      S      -1.7359399880     0.9489755680     0.7393908380
    9      C      -1.5098308915    -0.9425240093    -1.0174878213
   10      C      -3.0815414410     0.1702469276     0.2497565837
   11      C      -2.8520690430    -0.7868892497    -0.7459076254
   12      H      -3.6480508390    -1.3399433280    -1.2096708793
   13      H       4.0330338156    -0.3964258513     0.6986546759
   14      H       3.6480508390     1.3399433280    -1.2096708793
   15      H      -4.0330338156     0.3964258513     0.6986546759
   16      H      -1.1067216694    -1.6404757751    -1.7297623018
 ----------------------------------------------------------------
 Molecular Point Group                 C2    NOp =  2
 Largest Abelian Subgroup              C2    NOp =  2
 Nuclear Repulsion Energy =   635.3176505566 hartrees
 There are       43 alpha and       42 beta electrons
 Applying Cartesian multipole field
    Component          Value
    ---------          -----
     (2,0,0)        1.00000E-11
     (0,2,0)        2.00000E-11
     (0,0,2)       -3.00000E-11
 Nucleus-field energy     =     0.0000000133 hartrees
 Requested basis set is cc-pVTZ
 There are 140 shells and 392 basis functions
 A cutoff of  1.0D-11 yielded   8049 shell pairs
 There are     62645 function pairs (     81660 Cartesian)
 Smallest overlap matrix eigenvalue = 9.15E-05
 Guess MOs from SCF MO coefficient file
 Reading MOs from coefficient file
 Reading MOs from coefficient file
 An unrestricted Hartree-Fock SCF calculation will be
 performed using Pulay DIIS extrapolation
 SCF converges when DIIS error is below 1.0E-08
 Geometry optimization detected.  Setting ReadMinima to 0
 Setting SaveMinima to 0
 using 16 threads for integral computing 
 ---------------------------------------
  Cycle       Energy         DIIS Error
 ---------------------------------------
    1   -1101.2943666706      6.41E-04
    2   -1101.3075508524      7.40E-05
    3   -1101.3077508891      4.02E-05
    4   -1101.3078061285      1.58E-05
    5   -1101.3078377006      7.77E-06
    6   -1101.3078560083      5.68E-06
    7   -1101.3078718112      3.86E-06
    8   -1101.3078928631      2.83E-06
    9   -1101.3079133263      1.92E-06
   10   -1101.3079241719      1.69E-06
   11   -1101.3079301469      1.55E-06
   12   -1101.3079437542      1.21E-06
   13   -1101.3079527654      6.51E-07
   14   -1101.3079548303      2.67E-07
   15   -1101.3079549311      1.10E-07
   16   -1101.3079549508      4.62E-08
   17   -1101.3079549546      1.75E-08
   18   -1101.3079549557      8.19E-09 Convergence criterion met
 ---------------------------------------
 <S^2> = 0.8463
 SCF time:  CPU 1409.58 s  wall 88.15 s
 SCF   energy in the final basis set = -1101.3079549557
 Total energy in the final basis set = -1101.3079549557
 
 Components of the MP2 correlation energy:
        aaaa  correlation energy =        -0.2345513352 au
        abab  correlation energy =        -1.3215400891 au
        bbbb  correlation energy =        -0.2199785096 au
        non-Brillouin singles    =        -0.0000000000 au

 Total  MP2   correlation energy =        -1.7760699338 au
        MP2         total energy =     -1103.0840248895 au

  Entering Z-vector solver.
   1         0           1      0.000429    0.000429
   2         0           1      0.000340    0.000340
   3         0           1      0.000290    0.000290
   4         0           1      0.000363    0.000363
   5         0           1      0.000287    0.000287
   6         0           1      0.000218    0.000218
   7         0           1      0.000145    0.000145
   8         0           1      0.000078    0.000078
   9         0           1      0.000038    0.000038
  10         0           1      0.000021    0.000021
  11         0           1      0.000010    0.000010
  12         0           1      0.000005    0.000005
  13         0           1      0.000003    0.000003
  14         0           1      0.000001    0.000001
  15         1           0      0.000000    0.000000    Roots Converged
 Warning:  Cannot save MP2 spin density
 
 --------------------------------------------------------------
             Orbital Energies (a.u.) and Symmetries
 --------------------------------------------------------------
 
 Alpha MOs, Unrestricted
 -- Occupied --                  
-92.162 -92.162 -11.474 -11.474 -11.455 -11.455 -11.425 -11.425
  1 B     1 A     2 A     2 B     3 B     3 A     4 B     4 A                  
-11.410 -11.410  -9.164  -9.164  -6.845  -6.845  -6.844  -6.844
  5 B     5 A     6 B     6 A     7 B     7 A     8 A     8 B                  
 -6.842  -6.842  -1.388  -1.362  -1.226  -1.190  -1.179  -1.126
  9 B     9 A    10 A    10 B    11 A    11 B    12 A    12 B                  
 -0.989  -0.945  -0.941  -0.904  -0.883  -0.822  -0.753  -0.747
 13 A    13 B    14 A    14 B    15 A    15 B    16 A    17 A                  
 -0.745  -0.735  -0.725  -0.706  -0.697  -0.659  -0.650  -0.545
 16 B    17 B    18 A    18 B    19 A    19 B    20 A    21 A                  
 -0.534  -0.510  -0.500
 20 B    22 A    21 B                                                          
 -- Virtual --                   
 -0.082  -0.081  -0.003   0.004   0.019   0.026   0.029   0.042
 22 B    23 A    24 A    23 B    25 A    26 A    24 B    25 B                  
  0.049   0.051   0.071   0.081   0.093   0.104   0.163   0.167
 27 A    26 B    28 A    27 B    28 B    29 A    30 A    29 B                  
  0.194   0.200   0.207   0.210   0.231   0.237   0.260   0.260
 30 B    31 A    31 B    32 A    33 A    32 B    34 A    33 B                  
  0.282   0.282   0.287   0.301   0.313   0.314   0.325   0.333
 34 B    35 A    36 A    35 B    37 A    36 B    38 A    37 B                  
  0.344   0.353   0.367   0.377   0.384   0.384   0.407   0.417
 38 B    39 A    39 B    40 B    40 A    41 A    42 A    41 B                  
  0.417   0.423   0.432   0.446   0.454   0.456   0.462   0.466
 43 A    42 B    44 A    43 B    44 B    45 A    45 B    46 A                  
  0.480   0.483   0.493   0.510   0.511   0.525   0.531   0.552
 47 A    46 B    47 B    48 B    48 A    49 A    50 A    49 B                  
  0.579   0.597   0.618   0.623   0.624   0.655   0.673   0.684
 50 B    51 A    52 A    51 B    52 B    53 A    53 B    54 A                  
  0.690   0.702   0.706   0.729   0.743   0.758   0.771   0.779
 54 B    55 B    55 A    56 B    56 A    57 A    57 B    58 A                  
  0.809   0.825   0.836   0.838   0.860   0.860   0.892   0.904
 58 B    59 A    60 A    59 B    60 B    61 A    61 B    62 A                  
  0.922   0.937   0.954   0.962   0.962   0.990   1.014   1.015
 62 B    63 A    64 A    65 A    63 B    64 B    66 A    65 B                  
  1.031   1.032   1.056   1.058   1.068   1.084   1.128   1.137
 67 A    66 B    68 A    67 B    69 A    68 B    70 A    69 B                  
  1.146   1.154   1.154   1.185   1.197   1.222   1.233   1.262
 70 B    71 A    71 B    72 A    72 B    73 A    73 B    74 B                  
  1.263   1.289   1.302   1.325   1.337   1.347   1.361   1.371
 74 A    75 B    75 A    76 A    76 B    77 B    77 A    78 B                  
  1.389   1.392   1.397   1.418   1.430   1.450   1.468   1.477
 79 B    78 A    79 A    80 A    80 B    81 A    81 B    82 A                  
  1.499   1.512   1.520   1.570   1.574   1.580   1.612   1.652
 82 B    83 B    83 A    84 A    84 B    85 B    85 A    86 A                  
  1.667   1.689   1.695   1.708   1.728   1.740   1.744   1.777
 86 B    87 B    87 A    88 B    88 A    89 B    89 A    90 B                  
  1.783   1.838   1.865   1.899   1.901   1.949   1.955   1.969
 90 A    91 B    91 A    92 A    92 B    93 A    93 B    94 A                  
  1.985   2.016   2.025   2.042   2.050   2.058   2.062   2.093
 94 B    95 A    95 B    96 A    97 A    96 B    97 B    98 A                  
  2.115   2.125   2.149   2.179   2.240   2.252   2.278   2.299
 98 B    99 B    99 A   100 A   101 A   100 B   102 A   101 B                  
  2.321   2.330   2.332   2.348   2.355   2.377   2.388   2.414
102 B   103 A   103 B   104 B   104 A   105 A   105 B   106 B                  
  2.424   2.468   2.471   2.508   2.512   2.540   2.561   2.561
106 A   107 B   107 A   108 A   108 B   109 B   109 A   110 A                  
  2.587   2.599   2.610   2.624   2.640   2.691   2.709   2.718
110 B   111 A   111 B   112 A   112 B   113 A   114 A   113 B                  
  2.735   2.750   2.755   2.787   2.827   2.828   2.844   2.863
114 B   115 B   115 A   116 A   117 A   116 B   118 A   117 B                  
  2.868   2.888   2.899   2.939   2.964   2.977   3.009   3.014
119 A   118 B   119 B   120 B   120 A   121 B   121 A   122 A                  
  3.032   3.051   3.055   3.056   3.060   3.073   3.093   3.103
122 B   123 A   124 A   123 B   125 A   124 B   126 A   127 A                  
  3.110   3.125   3.139   3.158   3.159   3.188   3.196   3.221
125 B   126 B   127 B   128 B   128 A   129 A   129 B   130 B                  
  3.234   3.239   3.241   3.273   3.283   3.284   3.293   3.294
130 A   131 B   131 A   132 A   133 A   132 B   134 A   133 B                  
  3.317   3.328   3.330   3.342   3.346   3.349   3.361   3.376
135 A   136 A   134 B   137 A   135 B   136 B   137 B   138 A                  
  3.378   3.406   3.415   3.419   3.432   3.438   3.475   3.494
138 B   139 A   140 A   139 B   141 A   140 B   142 A   141 B                  
  3.514   3.528   3.537   3.548   3.563   3.582   3.590   3.622
143 A   142 B   144 A   143 B   145 A   144 B   146 A   145 B                  
  3.633   3.665   3.691   3.704   3.726   3.731   3.736   3.756
147 A   146 B   147 B   148 A   148 B   149 A   149 B   150 A                  
  3.792   3.807   3.808   3.838   3.849   3.856   3.872   3.888
150 B   151 B   151 A   152 A   153 A   152 B   154 A   153 B                  
  3.899   3.933   3.934   3.984   3.997   4.001   4.026   4.027
154 B   155 A   155 B   156 A   156 B   157 A   158 A   157 B                  
  4.041   4.043   4.059   4.078   4.095   4.111   4.133   4.143
159 A   158 B   160 A   159 B   160 B   161 A   161 B   162 A                  
  4.175   4.202   4.221   4.241   4.281   4.315   4.351   4.356
162 B   163 A   164 A   163 B   164 B   165 A   166 A   165 B                  
  4.369   4.376   4.426   4.437   4.463   4.467   4.478   4.505
166 B   167 A   168 A   167 B   169 A   168 B   170 A   169 B                  
  4.556   4.559   4.562   4.609   4.613   4.657   4.678   4.712
170 B   171 A   171 B   172 B   172 A   173 A   173 B   174 A                  
  4.716   4.766   4.796   4.819   4.862   4.889   4.901   4.915
174 B   175 A   176 A   175 B   176 B   177 A   178 A   177 B                  
  4.919   4.921   5.018   5.059   5.073   5.112   5.127   5.204
179 A   178 B   179 B   180 A   180 B   181 B   181 A   182 A                  
  5.212   5.241   5.254   5.318   5.384   5.420   5.496   5.498
182 B   183 A   183 B   184 A   184 B   185 A   185 B   186 A                  
  5.662   5.719   5.808   5.868   5.902   5.951   6.021   6.049
186 B   187 A   187 B   188 A   188 B   189 A   189 B   190 A                  
  6.058   6.374   6.386   6.543   6.604   9.282  10.465  11.882
190 B   191 A   191 B   192 A   192 B   193 A   193 B   194 A                  
 12.023  13.146  13.211  14.554  14.620
194 B   195 A   195 B   196 A   196 B                                          
 
 Beta MOs, Unrestricted
 -- Occupied --                  
-92.162 -92.162 -11.470 -11.469 -11.446 -11.446 -11.424 -11.424
  1 B     1 A     2 A     2 B     3 A     3 B     4 A     4 B                  
-11.412 -11.412  -9.165  -9.165  -6.845  -6.845  -6.844  -6.844
  5 B     5 A     6 B     6 A     7 A     7 B     8 A     8 B                  
 -6.844  -6.844  -1.373  -1.349  -1.202  -1.184  -1.180  -1.103
  9 B     9 A    10 A    10 B    11 A    11 B    12 A    12 B                  
 -0.980  -0.936  -0.930  -0.899  -0.882  -0.815  -0.743  -0.740
 13 A    13 B    14 A    14 B    15 A    15 B    16 A    16 B                  
 -0.738  -0.724  -0.714  -0.676  -0.670  -0.652  -0.644  -0.535
 17 A    17 B    18 A    19 A    18 B    19 B    20 A    21 A                  
 -0.525  -0.437
 20 B    22 A                                                                  
 -- Virtual --                   
 -0.232  -0.044  -0.036   0.005   0.009   0.024   0.031   0.034
 21 B    23 A    22 B    24 A    23 B    25 A    24 B    26 A                  
  0.052   0.052   0.063   0.072   0.082   0.099   0.107   0.164
 25 B    27 A    26 B    28 A    27 B    28 B    29 A    30 A                  
  0.169   0.197   0.203   0.210   0.213   0.232   0.239   0.265
 29 B    30 B    31 A    31 B    32 A    33 A    32 B    34 A                  
  0.265   0.284   0.295   0.295   0.305   0.318   0.319   0.332
 33 B    35 A    36 A    34 B    35 B    36 B    37 A    38 A                  
  0.337   0.351   0.356   0.373   0.389   0.389   0.395   0.415
 37 B    38 B    39 A    39 B    40 B    40 A    41 A    42 A                  
  0.423   0.424   0.427   0.440   0.455   0.457   0.458   0.465
 43 A    41 B    42 B    44 A    43 B    45 A    44 B    45 B                  
  0.470   0.484   0.489   0.498   0.516   0.520   0.530   0.540
 46 A    47 A    46 B    47 B    48 A    48 B    49 A    50 A                  
  0.556   0.583   0.601   0.622   0.626   0.628   0.659   0.677
 49 B    50 B    51 A    52 A    51 B    52 B    53 A    53 B                  
  0.689   0.693   0.706   0.709   0.736   0.745   0.762   0.772
 54 A    54 B    55 B    55 A    56 B    56 A    57 A    57 B                  
  0.782   0.813   0.830   0.839   0.844   0.862   0.863   0.897
 58 A    58 B    59 A    60 A    59 B    61 A    60 B    61 B                  
  0.908   0.925   0.942   0.956   0.966   0.968   0.992   1.018
 62 A    62 B    63 A    64 A    65 A    63 B    64 B    65 B                  
  1.019   1.032   1.035   1.058   1.060   1.069   1.091   1.133
 66 A    67 A    66 B    68 A    67 B    69 A    68 B    70 A                  
  1.141   1.148   1.158   1.159   1.190   1.201   1.228   1.239
 69 B    70 B    71 A    71 B    72 A    72 B    73 A    73 B                  
  1.267   1.268   1.291   1.306   1.327   1.341   1.350   1.362
 74 B    74 A    75 B    75 A    76 A    76 B    77 B    77 A                  
  1.374   1.391   1.395   1.402   1.421   1.434   1.452   1.471
 78 B    79 B    78 A    79 A    80 A    80 B    81 A    81 B                  
  1.481   1.502   1.515   1.524   1.574   1.577   1.585   1.614
 82 A    82 B    83 B    83 A    84 A    84 B    85 B    85 A                  
  1.654   1.667   1.690   1.695   1.710   1.729   1.740   1.745
 86 A    86 B    87 B    87 A    88 B    88 A    89 B    89 A                  
  1.778   1.788   1.840   1.868   1.900   1.902   1.949   1.958
 90 B    90 A    91 B    91 A    92 A    92 B    93 A    93 B                  
  1.971   1.988   2.016   2.028   2.043   2.052   2.059   2.065
 94 A    94 B    95 A    95 B    96 A    97 A    96 B    97 B                  
  2.106   2.117   2.137   2.152   2.185   2.243   2.254   2.281
 98 A    98 B    99 B    99 A   100 A   101 A   100 B   102 A                  
  2.301   2.326   2.333   2.335   2.353   2.357   2.389   2.396
101 B   102 B   103 B   103 A   104 B   104 A   105 A   105 B                  
  2.423   2.431   2.475   2.477   2.510   2.521   2.543   2.564
106 B   106 A   107 B   107 A   108 A   108 B   109 B   109 A                  
  2.569   2.594   2.606   2.612   2.629   2.645   2.701   2.711
110 A   110 B   111 A   111 B   112 A   112 B   113 A   114 A                  
  2.725   2.742   2.753   2.763   2.790   2.831   2.832   2.849
113 B   114 B   115 B   115 A   116 A   116 B   117 A   118 A                  
  2.869   2.870   2.892   2.905   2.947   2.968   2.983   3.012
117 B   119 A   118 B   119 B   120 B   120 A   121 B   121 A                  
  3.019   3.035   3.054   3.057   3.060   3.066   3.078   3.099
122 A   122 B   123 A   123 B   124 A   125 A   124 B   126 A                  
  3.112   3.114   3.131   3.145   3.162   3.164   3.192   3.200
127 A   125 B   126 B   127 B   128 A   128 B   129 A   129 B                  
  3.227   3.239   3.243   3.246   3.278   3.287   3.288   3.295
130 B   130 A   131 B   131 A   132 A   132 B   133 A   134 A                  
  3.299   3.322   3.332   3.334   3.349   3.350   3.358   3.368
133 B   135 A   136 A   134 B   137 A   135 B   136 B   137 B                  
  3.383   3.383   3.410   3.419   3.422   3.434   3.442   3.480
138 B   138 A   139 A   140 A   139 B   141 A   140 B   142 A                  
  3.495   3.518   3.532   3.542   3.553   3.567   3.587   3.594
141 B   143 A   142 B   144 A   143 B   145 A   144 B   146 A                  
  3.625   3.636   3.670   3.696   3.708   3.728   3.733   3.739
145 B   147 A   146 B   147 B   148 A   148 B   149 A   149 B                  
  3.760   3.797   3.809   3.810   3.841   3.852   3.858   3.876
150 A   150 B   151 B   151 A   152 A   153 A   152 B   154 A                  
  3.891   3.902   3.936   3.937   3.985   4.000   4.003   4.028
153 B   154 B   155 A   155 B   156 A   156 B   157 A   157 B                  
  4.028   4.043   4.044   4.061   4.080   4.096   4.112   4.134
158 A   159 A   158 B   160 A   159 B   160 B   161 A   161 B                  
  4.145   4.176   4.204   4.224   4.242   4.284   4.316   4.352
162 A   162 B   163 A   164 A   163 B   164 B   165 A   166 A                  
  4.357   4.370   4.377   4.431   4.438   4.465   4.471   4.480
165 B   166 B   167 A   168 A   167 B   169 A   168 B   170 A                  
  4.508   4.558   4.562   4.563   4.611   4.614   4.658   4.680
169 B   170 B   171 A   171 B   172 B   172 A   173 A   173 B                  
  4.713   4.717   4.769   4.799   4.821   4.864   4.891   4.902
174 A   174 B   175 A   176 A   175 B   176 B   177 A   178 A                  
  4.918   4.920   4.925   5.019   5.061   5.076   5.114   5.128
177 B   179 A   178 B   179 B   180 A   180 B   181 B   181 A                  
  5.205   5.213   5.242   5.254   5.319   5.385   5.421   5.497
182 A   182 B   183 A   183 B   184 A   184 B   185 A   185 B                  
  5.499   5.663   5.720   5.809   5.869   5.903   5.952   6.022
186 A   186 B   187 A   187 B   188 A   188 B   189 A   189 B                  
  6.049   6.059   6.375   6.387   6.544   6.605   9.285  10.468
190 A   190 B   191 A   191 B   192 A   192 B   193 A   193 B                  
 11.887  12.028  13.148  13.214  14.555  14.621
194 A   194 B   195 A   195 B   196 A   196 B                                  
 --------------------------------------------------------------
 
          Ground-State Mulliken Net Atomic Charges

     Atom                 Charge (a.u.)    Spin (a.u.)
  --------------------------------------------------------
      1 S                     0.314037       0.077128
      2 C                    -0.145665      -0.490486
      3 C                    -0.102062       0.952404
      4 C                    -0.183109      -0.722127
      5 C                    -0.067750       0.662527
      6 H                     0.215001       0.042523
[...]
  4 B     4 A     5 B     5 A     6 A     6 B     7 B     7 A                  
 -6.843  -6.843  -1.369  -1.344  -1.203  -1.182  -1.174  -1.101
  8 A     8 B     9 A     9 B    10 A    10 B    11 A    11 B                  
 -0.981  -0.936  -0.932  -0.895  -0.879  -0.812  -0.746  -0.740
 12 A    12 B    13 A    13 B    14 A    14 B    15 A    15 B                  
 -0.739  -0.724  -0.712  -0.672  -0.667  -0.647  -0.641  -0.534
 16 A    16 B    17 A    18 A    17 B    18 B    19 A    20 A                  
 -0.521  -0.423
 19 B    21 A                                                                  
 -- Virtual --                   
 -0.241  -0.046  -0.040   0.004   0.009   0.024   0.033   0.033
 20 B    22 A    21 B    23 A    22 B    24 A    25 A    23 B                  
  0.051   0.052   0.059   0.071   0.081   0.101   0.109   0.166
 26 A    24 B    25 B    27 A    26 B    27 B    28 A    29 A                  
  0.172   0.195   0.198   0.214   0.216   0.234   0.240   0.260
 28 B    29 B    30 A    31 A    30 B    32 A    31 B    33 A                  
  0.267   0.286   0.294   0.296   0.306   0.317   0.318   0.332
 32 B    34 A    33 B    35 A    34 B    35 B    36 A    37 A                  
  0.338   0.356   0.357   0.369   0.384   0.385   0.389   0.415
 36 B    37 B    38 A    38 B    39 B    39 A    40 A    41 A                  
  0.418   0.422   0.433   0.440   0.451   0.458   0.459   0.472
 40 B    42 A    41 B    43 A    42 B    44 A    43 B    45 A                  
  0.476   0.487   0.489   0.494   0.515   0.520   0.527   0.546
 44 B    46 A    45 B    46 B    47 A    47 B    48 A    49 A                  
  0.556   0.585   0.595   0.620   0.626   0.626   0.658   0.673
 48 B    49 B    50 A    51 A    50 B    51 B    52 A    52 B                  
  0.683   0.693   0.699   0.703   0.744   0.745   0.759   0.768
 53 A    53 B    54 A    54 B    55 A    55 B    56 A    56 B                  
  0.785   0.806   0.834   0.840   0.849   0.858   0.862   0.903
 57 A    57 B    58 A    58 B    59 A    59 B    60 A    60 B                  
  0.906   0.921   0.943   0.955   0.964   0.971   0.998   1.019
 61 A    61 B    62 A    63 A    62 B    64 A    63 B    65 A                  
  1.021   1.032   1.038   1.059   1.065   1.068   1.084   1.123
 64 B    66 A    65 B    67 A    66 B    68 A    67 B    69 A                  
  1.136   1.144   1.151   1.165   1.189   1.196   1.233   1.237
 68 B    69 B    70 A    70 B    71 A    71 B    72 A    72 B                  
  1.262   1.266   1.287   1.299   1.324   1.338   1.347   1.364
 73 A    73 B    74 B    74 A    75 A    75 B    76 B    76 A                  
  1.372   1.394   1.395   1.401   1.419   1.432   1.460   1.477
 77 B    78 B    77 A    78 A    79 A    79 B    80 A    80 B                  
  1.482   1.506   1.524   1.528   1.574   1.578   1.590   1.614
 81 A    81 B    82 A    82 B    83 B    83 A    84 B    84 A                  
  1.652   1.665   1.681   1.687   1.714   1.725   1.740   1.741
 85 A    85 B    86 B    86 A    87 B    87 A    88 B    88 A                  
  1.792   1.795   1.843   1.869   1.898   1.898   1.949   1.952
 89 A    89 B    90 B    90 A    91 A    91 B    92 A    92 B                  
  1.964   1.987   2.014   2.029   2.031   2.043   2.068   2.072
 93 A    93 B    94 A    94 B    95 A    95 B    96 A    96 B                  
  2.098   2.112   2.135   2.147   2.195   2.245   2.252   2.275
 97 A    97 B    98 B    98 A    99 A   100 A    99 B   101 A                  
  2.297   2.312   2.329   2.331   2.344   2.356   2.389   2.390
100 B   101 B   102 A   102 B   103 B   103 A   104 A   104 B                  
  2.430   2.435   2.472   2.480   2.503   2.540   2.545   2.571
105 B   105 A   106 B   106 A   107 A   107 B   108 B   108 A                  
  2.573   2.580   2.603   2.609   2.618   2.636   2.695   2.701
109 A   109 B   110 B   110 A   111 A   111 B   112 A   113 A                  
  2.716   2.734   2.756   2.758   2.789   2.824   2.827   2.853
112 B   113 B   114 A   114 B   115 A   115 B   116 A   117 A                  
  2.865   2.873   2.883   2.912   2.944   2.964   2.965   2.992
118 A   116 B   117 B   118 B   119 B   119 A   120 B   120 A                  
  3.024   3.032   3.050   3.055   3.062   3.067   3.083   3.101
121 A   121 B   122 A   122 B   123 A   124 A   123 B   125 A                  
  3.110   3.117   3.131   3.143   3.151   3.160   3.197   3.214
124 B   126 A   125 B   126 B   127 A   127 B   128 A   128 B                  
  3.231   3.244   3.246   3.248   3.276   3.284   3.288   3.291
129 A   129 B   130 A   130 B   131 A   132 A   131 B   132 B                  
  3.297   3.317   3.331   3.332   3.337   3.348   3.353   3.363
133 A   134 A   133 B   135 A   134 B   136 A   135 B   136 B                  
  3.378   3.379   3.407   3.419   3.423   3.446   3.454   3.477
137 B   137 A   138 A   138 B   139 A   139 B   140 A   141 A                  
  3.502   3.507   3.526   3.539   3.544   3.560   3.587   3.592
140 B   142 A   141 B   143 A   142 B   144 A   145 A   143 B                  
  3.620   3.641   3.662   3.689   3.698   3.728   3.729   3.730
144 B   146 A   145 B   146 B   147 A   147 B   148 A   148 B                  
  3.759   3.789   3.802   3.816   3.830   3.845   3.858   3.865
149 A   149 B   150 A   150 B   151 A   152 A   151 B   153 A                  
  3.886   3.898   3.921   3.938   3.978   3.990   3.998   4.016
152 B   153 B   154 B   154 A   155 A   155 B   156 A   157 A                  
  4.018   4.022   4.035   4.065   4.078   4.086   4.102   4.128
156 B   158 A   157 B   159 A   158 B   159 B   160 A   160 B                  
  4.140   4.174   4.180   4.224   4.242   4.273   4.304   4.337
161 A   161 B   162 A   163 A   162 B   163 B   164 A   165 A                  
  4.342   4.364   4.384   4.422   4.433   4.437   4.453   4.467
164 B   165 B   166 A   167 A   166 B   168 A   167 B   169 A                  
  4.489   4.546   4.549   4.553   4.600   4.611   4.638   4.683
168 B   169 B   170 A   170 B   171 B   171 A   172 A   172 B                  
  4.707   4.711   4.758   4.829   4.851   4.872   4.895   4.903
173 A   173 B   174 A   175 A   174 B   175 B   176 A   177 A                  
  4.915   4.917   4.947   5.026   5.056   5.071   5.129   5.138
178 A   176 B   177 B   178 B   179 A   179 B   180 B   180 A                  
  5.201   5.207   5.241   5.245   5.300   5.379   5.415   5.491
181 A   181 B   182 A   182 B   183 A   183 B   184 A   184 B                  
  5.502   5.648   5.718   5.799   5.838   5.894   5.928   5.989
185 A   185 B   186 A   186 B   187 A   187 B   188 A   188 B                  
  6.025   6.039   6.358   6.372   6.521   6.597   9.358  10.572
189 A   189 B   190 A   190 B   191 A   191 B   192 A   192 B                  
 11.739  11.966  13.057  13.174  14.417  14.503
193 A   193 B   194 A   194 B   195 A   195 B                                  
 --------------------------------------------------------------
 
          Ground-State Mulliken Net Atomic Charges

     Atom                 Charge (a.u.)    Spin (a.u.)
  --------------------------------------------------------
      1 S                     0.298359       0.083002
      2 C                    -0.175160      -0.111967
      3 C                    -0.092931       0.447792
      4 C                    -0.181688      -0.192340
      5 C                    -0.029471       0.277162
      6 H                     0.219329       0.008468
      7 C                    -0.029429       0.277214
      8 S                     0.298305       0.083028
      9 C                    -0.181669      -0.192416
     10 C                    -0.175098      -0.112059
     11 C                    -0.092886       0.447883
     12 H                     0.223702      -0.023477
     13 H                     0.237809       0.011351
     14 H                     0.223718      -0.023472
     15 H                     0.237795       0.011358
     16 H                     0.219315       0.008474
  --------------------------------------------------------
  Sum of atomic charges =     1.000000
  Sum of spin   charges =     1.000000

 -----------------------------------------------------------------
                    Cartesian Multipole Moments
 -----------------------------------------------------------------
    Charge (ESU x 10^10)
                 4.8032
    Dipole Moment (Debye)
         X      -0.0008      Y      -0.0004      Z      -0.6252
       Tot       0.6252
    Quadrupole Moments (Debye-Ang)
        XX     -24.6183     XY       2.8025     YY     -64.1122
        XZ       0.0004     YZ      -0.0005     ZZ     -64.1415
    Octopole Moments (Debye-Ang^2)
       XXX      -0.0023    XXY      -0.0009    XYY       0.0014
       YYY      -0.0004    XXZ      10.3441    XYZ     -19.6568
       YYZ      -2.8975    XZZ       0.0013    YZZ       0.0000
       ZZZ       8.3289
    Hexadecapole Moments (Debye-Ang^3)
      XXXX   -1322.5558   XXXY      32.5737   XXYY    -346.4802
      XYYY      -6.0574   YYYY    -324.9191   XXXZ       0.0010
      XXYZ      -0.0025   XYYZ      -0.0002   YYYZ      -0.0019
      XXZZ    -337.9362   XYZZ       7.4605   YYZZ     -88.4268
      XZZZ      -0.0003   YZZZ      -0.0019   ZZZZ    -305.5913
 -----------------------------------------------------------------
 DrvMan is completing analytic gradient of the MP2 energy
 MP2 relaxed dipole moment
            1
    1  -0.0003109
    2  -0.0001590
    3  -0.2459732
	Magnitude:	 0.246 au	 0.625 Debye
 MP2 energy read as -1103.086270
 Full Analytical Gradient of MP2 Energy (in au.)
             1             2             3             4             5
    1    0.01722368   -0.01141635    0.00090161   -0.00678584    0.00273056
    2    0.00533666   -0.00945860    0.00119468   -0.01131833    0.02348448
    3    0.00035726    0.00709757   -0.00047935   -0.00252447   -0.00481796
             6             7             8             9            10
    1    0.00015065   -0.00273703   -0.01722451    0.00677780    0.01142314
    2    0.00000439   -0.02348763   -0.00533868    0.01132667    0.00945184
    3    0.00014608   -0.00480784    0.00035541   -0.00251543    0.00708834
            11            12            13            14            15
    1   -0.00089345   -0.00039085   -0.00006055    0.00039221    0.00006184
    2   -0.00119025    0.00059143    0.00017319   -0.00059093   -0.00017465
    3   -0.00047459    0.00023500   -0.00001924    0.00023435   -0.00002165
            16
    1   -0.00015291
    2   -0.00000427
    3    0.00014653
 Gradient time:  CPU 1.58 s  wall 0.10 s
 Geometry Optimization Parameters
   NAtoms,    NIC,     NZ,  NCons,   NDum,   NFix, NCnnct, MaxDiis
       16     111       0       1       0       0       0       0

 Cartesian Hessian Update
 Hessian Updated using BFGS Update


** CONSTRAINED OPTIMIZATION IN DELOCALIZED INTERNAL COORDINATES **
   Searching for a Minimum

   Optimization Cycle:  10

                       Coordinates (Angstroms)
     ATOM                X               Y               Z
      1  S         1.6675691542   -0.9168279198    0.7178424083
      2  C         3.0544288506   -0.1487715797    0.3145233182
      3  C         2.8749119392    0.8038179461   -0.7089175806
      4  C         1.5318493077    0.9451473855   -1.0831176070
      5  C         0.7123961582    0.1106613071   -0.3843034457
      6  H         1.1795681276    1.6342420612   -1.8292104874
      7  C        -0.7123961582   -0.1106613071   -0.3843034457
      8  S        -1.6675691542    0.9168279198    0.7178424083
      9  C        -1.5318493077   -0.9451473855   -1.0831176070
     10  C        -3.0544288506    0.1487715797    0.3145233182
     11  C        -2.8749119392   -0.8038179461   -0.7089175806
     12  H        -3.6976107948   -1.3401694041   -1.1454193588
     13  H         3.9769924926   -0.3617343626    0.8235391562
     14  H         3.6976107948    1.3401694041   -1.1454193588
     15  H        -3.9769924926    0.3617343626    0.8235391562
     16  H        -1.1795681276   -1.6342420612   -1.8292104874
   Point Group: c2    Number of degrees of freedom:    22


   Energy is  -1103.086269762

              Constraints and their Current Values
                                        Value     Constraint
   Dihedral:        4   5   7   9       90.000       90.000
 Hessian Updated using BFGS Update

 21 Hessian modes will be used to form the next step
  Hessian Eigenvalues:
     0.037309    0.044968    0.045782    0.046991    0.052211    0.080869
     0.144302    0.158774    0.160844    0.164255    0.223776    0.279145
     0.315142    0.364559    0.365728    0.368465    0.403726    0.462218
     0.502421    0.589518    2.822705

 Minimum Search - Taking Simple RFO Step
 Searching for Lamda that Minimizes Along All modes
 Value Taken    Lamda =  -0.00043976
 Step Taken.  Stepsize is  0.035683

                             Maximum     Tolerance    Cnvgd?
         Gradient           0.018269      0.000300      NO
         Displacement       0.016917      0.001200      NO
         Energy change     -0.000296      0.000001      NO


 New Cartesian Coordinates Obtained by Inverse Iteration

 Displacement from previous Coordinates is:  0.068316
 ----------------------------------------------------------------
             Standard Nuclear Orientation (Angstroms)
    I     Atom           X                Y                Z
 ----------------------------------------------------------------
    1      S       1.6568776860    -0.9108810987     0.7201758795
    2      C       3.0533974866    -0.1447436119     0.3204730949
    3      C       2.8790243777     0.8052945475    -0.7080744330
    4      C       1.5358311325     0.9463971776    -1.0898653789
    5      C       0.7117698658     0.1108954085    -0.3911834240
    6      H       1.1863142787     1.6340190851    -1.8388944972
    7      C      -0.7117698658    -0.1108954085    -0.3911834240
    8      S      -1.6568776860     0.9108810987     0.7201758795
    9      C      -1.5358311325    -0.9463971776    -1.0898653789
   10      C      -3.0533974866     0.1447436119     0.3204730949
   11      C      -2.8790243777    -0.8052945475    -0.7080744330
   12      H      -3.7028598857    -1.3420366420    -1.1416791502
   13      H       3.9723548534    -0.3613558362     0.8339843121
   14      H       3.7028598857     1.3420366420    -1.1416791502
   15      H      -3.9723548534     0.3613558362     0.8339843121
   16      H      -1.1863142787    -1.6340190851    -1.8388944972
 ----------------------------------------------------------------
 Molecular Point Group                 C2    NOp =  2
 Largest Abelian Subgroup              C2    NOp =  2
 Nuclear Repulsion Energy =   636.3311050192 hartrees
 There are       43 alpha and       42 beta electrons
 Applying Cartesian multipole field
    Component          Value
    ---------          -----
     (2,0,0)        1.00000E-11
     (0,2,0)        2.00000E-11
     (0,0,2)       -3.00000E-11
 Nucleus-field energy     =     0.0000000126 hartrees
 Requested basis set is cc-pVTZ
 There are 140 shells and 392 basis functions
 A cutoff of  1.0D-11 yielded   8037 shell pairs
 There are     62605 function pairs (     81640 Cartesian)
 Smallest overlap matrix eigenvalue = 9.15E-05
 Guess MOs from SCF MO coefficient file
 Reading MOs from coefficient file
 Reading MOs from coefficient file
 An unrestricted Hartree-Fock SCF calculation will be
 performed using Pulay DIIS extrapolation
 SCF converges when DIIS error is below 1.0E-08
 Geometry optimization detected.  Setting ReadMinima to 0
 Setting SaveMinima to 0
 using 16 threads for integral computing 
 ---------------------------------------
  Cycle       Energy         DIIS Error
 ---------------------------------------
    1   -1101.2941419865      2.08E-04
    2   -1101.3028654303      2.26E-05
    3   -1101.3028845318      1.03E-05
    4   -1101.3028883559      4.36E-06
    5   -1101.3028900939      1.95E-06
    6   -1101.3028907505      1.28E-06
    7   -1101.3028913063      8.10E-07
    8   -1101.3028919079      7.22E-07
    9   -1101.3028926881      6.16E-07
   10   -1101.3028941718      4.85E-07
   11   -1101.3028955571      4.52E-07
   12   -1101.3028964864      4.38E-07
   13   -1101.3028971051      4.39E-07
   14   -1101.3028973380      4.39E-07
   15   -1101.3028973428      4.40E-07
   16   -1101.3028975745      4.31E-07
   17   -1101.3028977385      4.55E-07
   18   -1101.3028972023      4.36E-07
   19   -1101.3028972100      4.36E-07
   20   -1101.3028972347      4.36E-07
   21   -1101.3028974633      4.14E-07
   22   -1101.3028976698      4.39E-07
   23   -1101.3028974245      4.39E-07
   24   -1101.3028976831      4.35E-07
   25   -1101.3028977693      4.24E-07
   26   -1101.3028979837      4.18E-07
   27   -1101.3028981144      4.31E-07
   28   -1101.3028975127      4.20E-07
   29   -1101.3028975409      4.24E-07
   30   -1101.3028975986      4.27E-07
   31   -1101.3028978153      4.04E-07
   32   -1101.3028980142      4.32E-07
   33   -1101.3028976482      4.30E-07
   34   -1101.3028977142      4.29E-07
   35   -1101.3028977865      4.28E-07
   36   -1101.3028980011      4.14E-07
   37   -1101.3028981711      4.39E-07
   38   -1101.3028975915      4.25E-07
   39   -1101.3028975900      4.25E-07
   40   -1101.3028975896      4.25E-07
   41   -1101.3028978075      4.06E-07
   42   -1101.3028979963      4.29E-07
   43   -1101.3028976243      4.28E-07
   44   -1101.3028978653      4.25E-07
   45   -1101.3028980809      4.17E-07
   46   -1101.3028982311      4.39E-07
   47   -1101.3028976386      4.20E-07
   48   -1101.3028976358      4.20E-07
   49   -1101.3028978548      4.04E-07
   50   -1101.3028980447      4.26E-07
   51   -1101.3028976919      4.25E-07
   52   -1101.3028979219      4.23E-07
   53   -1101.3028981366      4.14E-07
   54   -1101.3028982856      4.35E-07
   55   -1101.3028977142      4.18E-07
   56   -1101.3028977119      4.18E-07
   57   -1101.3028979299      4.02E-07
   58   -1101.3028981177      4.24E-07
   59   -1101.3028977615      4.23E-07
   60   -1101.3028979504      4.21E-07
   61   -1101.3028981651      4.12E-07
   62   -1101.3028983178      4.33E-07
   63   -1101.3028977655      4.18E-07
   64   -1101.3028977639      4.18E-07
   65   -1101.3028979811      4.02E-07
   66   -1101.3028981678      4.24E-07
   67   -1101.3028978100      4.23E-07
   68   -1101.3028979595      4.22E-07
   69   -1101.3028981737      4.11E-07
   70   -1101.3028983312      4.33E-07
   71   -1101.3028977947      4.20E-07
   72   -1101.3028977928      4.20E-07
   73   -1101.3028980097      4.03E-07
   74   -1101.3028981964      4.25E-07
   75   -1101.3028978398      4.24E-07
   76   -1101.3028979545      4.23E-07
   77   -1101.3028981690      4.11E-07
   78   -1101.3028983313      4.34E-07
   79   -1101.3028978092      4.22E-07
   80   -1101.3028978067      4.22E-07
   81   -1101.3028980236      4.04E-07
   82   -1101.3028982111      4.27E-07
   83   -1101.3028978597      4.25E-07
   84   -1101.3028979435      4.25E-07
   85   -1101.3028981584      4.12E-07
   86   -1101.3028983253      4.35E-07
   87   -1101.3028978176      4.24E-07
   88   -1101.3028978140      4.24E-07
   89   -1101.3028980307      4.06E-07
   90   -1101.3028982196      4.30E-07
   91   -1101.3028978771      4.28E-07
   92   -1101.3028979339      4.28E-07
   93   -1101.3028981487      4.13E-07
   94   -1101.3028983202      4.37E-07
   95   -1101.3028978284      4.27E-07
   96   -1101.3028978238      4.28E-07
   97   -1101.3028980398      4.08E-07
   98   -1101.3028982301      4.32E-07
   99   -1101.3028979005      4.30E-07
  100   -1101.3028979330      4.31E-07    Convergence failure

 Q-Chem fatal error occurred in module /project/projectdirs/jcesr/qchem/qc44/cnl_qc441/compile/cori/qc_src/scfman/scfman.C, line 4525:

 SCF failed to converge

