srun -N 1 --ntasks-per-node 1 --cpus-per-task 64 --cpu_bind=cores --nodelist nid01577 /global/project/projectdirs/jcesr/qchem/qc44/cnl_qc441/dist/exe/qcprog.cori.haswell.exe .pt_mp2_hole_-30.0.in.60770.qcin.1 /dev/shm/eg_qchem/qchem60770/
Process 0 of 1 is on nid01577 - thread support 0
initial socket setup ...start
initial socket setup ...done 
now start server 0 ... 
nid01577 10.128.6
Q-Chem Developer Version! Running on 10.128.6.*
                  Welcome to Q-Chem
     A Quantum Leap Into The Future Of Chemistry


 Q-Chem 4.4, Q-Chem, Inc., Pleasanton, CA (2016)

 Y. Shao,  Z. Gan,  E. Epifanovsky,  A. T. B. Gilbert,  M. Wormit,  
 J. Kussmann,  A. W. Lange,  A. Behn,  J. Deng,  X. Feng,  D. Ghosh,  
 M. Goldey,  P. R. Horn,  L. D. Jacobson,  I. Kaliman,  F.Rob,  
 R. Z. Khaliullin,  T. Kus,  A. Landau,  J. Liu,  E. I. Proynov,  Y. M. Rhee,  
 R. M. Richard,  M. A. Rohrdanz,  R. P. Steele,  E. J. Sundstrom,  
 H. L. Woodcock III,  P. M. Zimmerman,  D. Zuev,  B. Albrecht,  E. Alguire,  
 B. Austin,  S. A. Baeppler,  G. J. O. Beran,  Y. A. Bernard,  E. Berquist,  
 K. Brandhorst,  K. B. Bravaya,  S. T. Brown,  D. Casanova,  C.-M. Chang,  
 Y. Chen,  S. H. Chien,  K. D. Closser,  M. P. Coons,  D. L. Crittenden,  
 S. Dasgupta,  M. Diedenhofen,  R. A. DiStasio Jr.,  H. Do,  A. D. Dutoi,  
 R. G. Edgar,  P.-T. Fang,  S. Fatehi,  Q. Feng,  L. Fusti-Molnar,  
 A. Ghysels,  A. Golubeva-Zadorozhnaya,  J. Gomes,  A. Gunina,  
 M. W. D. Hanson-Heine,  P. H. P. Harbach,  A. W. Hauser,  E. G. Hohenstein,  
 Z. C. Holden,  K. Hui,  T.-C. Jagau,  H. Ji,  B. Kaduk,  K. Khistyaev,  
 Jaehoon Kim,  Jihan Kim,  R. A. King,  P. Klunzinger,  D. Kosenkov,  
 T. Kowalczyk,  C. M. Krauter,  A. Kunitsa,  K. U. Lao,  A. Laurent,  
 K. V. Lawler,  D. Lefrancois,  S. Lehtola,  S. V. Levchenko,  C. Y. Lin,  
 Y.-S. Lin,  F. Liu,  E. Livshits,  R. C. Lochan,  A. Luenser,  P. Manohar,  
 S. F. Manzer,  S.-P. Mao,  Y. Mao,  N. Mardirossian,  A. V. Marenich,  
 L. A. Martinez-Martinez,  S. A. Maurer,  N. J. Mayhall,  J.-M. Mewes,  
 A. F. Morrison,  K. Nanda,  C. M. Oana,  R. Olivares-Amaya,  D. P. O'Neill,  
 J. A. Parkhill,  T. M. Perrine,  R. Peverati,  P. A. Pieniazek,  F. Plasser,  
 A. Prociuk,  D. R. Rehn,  E. Rosta,  N. J. Russ,  N. Sergueev,  
 S. M. Sharada,  S. Sharma,  D. W. Small,  A. Sodt,  T. Stauch,  T. Stein,  
 D. Stuck,  Y.-C. Su,  A. J. W. Thom,  T. Tsuchimochi,  L. Vogt,  O. Vydrov,  
 T. Wang,  M. A. Watson,  J. Wenzel,  A. White,  C. F. Williams,  
 V. Vanovschi,  S. Yeganeh,  S. R. Yost,  Z.-Q. You,  I. Y. Zhang,  X. Zhang,  
 Y. Zhao,  B. R. Brooks,  G. K. L. Chan,  D. M. Chipman,  C. J. Cramer,  
 W. A. Goddard III,  M. S. Gordon,  W. J. Hehre,  A. Klamt,  
 H. F. Schaefer III,  M. W. Schmidt,  C. D. Sherrill,  D. G. Truhlar,  
 A. Warshel,  X. Xu,  A. Aspuru-Guzik,  R. Baer,  A. T. Bell,  N. A. Besley,  
 J.-D. Chai,  A. Dreuw,  B. D. Dunietz,  T. R. Furlani,  S. R. Gwaltney,  
 C.-P. Hsu,  Y. Jung,  J. Kong,  D. S. Lambrecht,  W. Liang,  C. Ochsenfeld,  
 V. A. Rassolov,  L. V. Slipchenko,  J. E. Subotnik,  T. Van Voorhis,  
 J. M. Herbert,  A. I. Krylov,  P. M. W. Gill,  M. Head-Gordon

 Contributors to earlier versions of Q-Chem not listed above: 
 R. D. Adamson,  J. Baker,  E. F. C. Byrd,  A. K. Chakraborty,  C.-L. Cheng,  
 H. Dachsel,  R. J. Doerksen,  G. Hawkins,  A. Heyden,  S. Hirata,  
 G. Kedziora,  F. J. Keil,  C. Kelley,  P. P. Korambath,  W. Kurlancheek,  
 A. M. Lee,  M. S. Lee,  D. Liotard,  I. Lotan,  P. E. Maslen,  N. Nair,  
 D. Neuhauser,  R. Olson,  B. Peters,  J. Ritchie,  N. E. Schultz,  
 N. Shenvi,  A. C. Simmonett,  K. S. Thanthiriwatte,  Q. Wu,  W. Zhang

 Please cite Q-Chem as follows:
 Y. Shao et al., Mol. Phys. 113, 184-215 (2015)
 DOI: 10.1080/00268976.2014.952696

 Q-Chem 4.4.1 for Intel X86 EM64T Linux

 Parts of Q-Chem use Armadillo 5.200.1 (Boston Tea Smuggler).
 http://arma.sourceforge.net/

 Q-Chem begins on Tue Mar  7 05:06:24 2017  

Host: nid01545
0

     Scratch files written to /dev/shm/eg_qchem/qchem60770//
 Parallel job on  1  processors

Checking the input file for inconsistencies... 	...done.

--------------------------------------------------------------
User input:
--------------------------------------------------------------
$molecule
 1  2
 S           1.81042700       -1.22909900       -0.13996800
 C           3.10211600       -0.18861200       -0.13982200
 C           2.74845300        1.15163900       -0.14006900
 C           1.39169900        1.31613900       -0.14029100
 C           0.68906700        0.11310500       -0.14015500
 H           0.90454800        2.27578700       -0.14040700
 C          -0.68906700       -0.11310500       -0.14015500
 S          -1.35519045       -1.54432823       -0.89304243
 C          -1.71612566        0.66035812        0.39639682
 C          -2.89400451       -1.07926088       -0.48458517
 C          -2.95740421        0.12134968        0.20524459
 H          -3.88142201        0.55455333        0.53799524
 H           4.10439600       -0.57731800       -0.13934700
 H           3.47107900        1.94537000       -0.13983300
 H          -3.73130888       -1.69563213       -0.75783534
 H          -1.53905805        1.58982406        0.90921309
$end


$rem
         jobtype = opt
        exchange = hf
           basis = cc-pvtz
  max_scf_cycles = 100
      mem_static = 6200
       mem_total = 62000
          method = mp2
$end


$opt
CONSTRAINT
tors 4 5 7 9 -30.0
ENDCONSTRAINT
$end

--------------------------------------------------------------
 Atom  11: ( -2.8907313287,  0.2793893154, -1.0140972180)
         ->( -2.8907313326,  0.2793893135, -1.0140972128)
 Atom  16: ( -1.2415764343,  0.5868155205, -2.3740500650)
         ->( -1.2415764406,  0.5868155185, -2.3740500649)
 Atom  14: (  3.7258881566, -0.4806566021, -1.6576823662)
         ->(  3.7258881521, -0.4806566039, -1.6576823724)
 ----------------------------------------------------------------
             Standard Nuclear Orientation (Angstroms)
    I     Atom           X                Y                Z
 ----------------------------------------------------------------
    1      S       1.6000272313     0.3343934129     1.1084389823
    2      C       3.0349735446     0.0730077995     0.3187046407
    3      C       2.8907313326    -0.2793893135    -1.0140972128
    4      C       1.5758879627    -0.3327780945    -1.3831206085
    5      C       0.6978659978    -0.0242718298    -0.3463545476
    6      H       1.2415764406    -0.5868155185    -2.3740500649
    7      C      -0.6978659963     0.0242718275    -0.3463545480
    8      S      -1.6000272349    -0.3343934122     1.1084389811
    9      C      -1.5758879584     0.3327780934    -1.3831206077
   10      C      -3.0349735463    -0.0730078001     0.3187046398
   11      C      -2.8907313326     0.2793893135    -1.0140972128
   12      H      -3.7258881521     0.4806566039    -1.6576823724
   13      H       3.9654230466     0.1824181336     0.8459151125
   14      H       3.7258881521    -0.4806566039    -1.6576823724
   15      H      -3.9654230485    -0.1824181352     0.8459151136
   16      H      -1.2415764406     0.5868155185    -2.3740500649
 ----------------------------------------------------------------
 Molecular Point Group                 C2    NOp =  2
 Largest Abelian Subgroup              C2    NOp =  2
 Nuclear Repulsion Energy =   643.1461420249 hartrees
 There are       43 alpha and       42 beta electrons
 Requested basis set is cc-pVTZ
 There are 140 shells and 392 basis functions

 Total QAlloc Memory Limit  62000 MB
 Mega-Array Size      6061 MB
 MEM_STATIC part      6200 MB
 A cutoff of  1.0D-11 yielded   8070 shell pairs
 There are     62758 function pairs (     81792 Cartesian)
 
 -------------------------------------------------------
 OpenMP Integral Computing Module                       
 Release: version 1.0, May 2013, Q-Chem Inc. Pittsburgh 
 -------------------------------------------------------
 Integral Job Info:
 Integral job number is                      11
 Integral operator is                         1
 short-range coefficients                     0
 long-range coefficients              100000000
 Omega coefficients                           0
 if combine SR and LR in K                    0
 Integral screening is                        0
 Integral computing path is                   2
 max size of driver memory is            800000
 size of driver memory is                776718
 size of scratch memory is             26248924
 max col of scratch BK array              10000
 max len of scratch array in speh3          662
 max len of scratch index in speh4           32
 max int batch size is                      520
 min int batch size is                       52
 fixed nKL is                                52
 max L of basis functions is                  3
 order of int derivative is                   0
 number of shells is                        140
 number of basis is                         448
 number of cartesian basis is               448
 number of contracted shell pairs          8070
 number of primitive shell pairs          28646
 maxK2 (contraction) of shell pair          121
 max number of K2 of shell pair               1
 max number of CS2 of shell pair           1060
 max number of PS2 of shell pair           3150
 mem total for path MDJ                  223748
 -------------------------------------------------------
 Smallest overlap matrix eigenvalue = 5.94E-05

 Scale SEOQF with 1.000000e-01/1.000000e+00/1.000000e-01

 Standard Electronic Orientation quadrupole field applied
 Nucleus-field energy     =     0.0000000088 hartrees
 Guess from superposition of atomic densities
 Warning:  Energy on first SCF cycle will be non-variational
 An unrestricted Hartree-Fock SCF calculation will be
 performed using Pulay DIIS extrapolation
 SCF converges when DIIS error is below 1.0E-08
 using 16 threads for integral computing 
 ---------------------------------------
  Cycle       Energy         DIIS Error
 ---------------------------------------
    1   -1106.2082706975      3.04E-02
    2   -1087.1182388478      1.69E-02
    3   -1100.4213057190      6.12E-03
    4   -1101.2131832221      2.55E-03
    5   -1101.3366966035      7.78E-04
    6   -1101.3514222622      2.34E-04
    7   -1101.3544013013      7.46E-05
    8   -1101.3556986075      3.63E-05
    9   -1101.3566893266      2.61E-05
   10   -1101.3576665166      2.44E-05
   11   -1101.3586123743      2.11E-05
   12   -1101.3597299663      1.43E-05
   13   -1101.3600403484      6.14E-06
   14   -1101.3600835239      3.83E-06
   15   -1101.3601094539      1.95E-06
   16   -1101.3601182640      7.79E-07
   17   -1101.3601190772      2.48E-07
   18   -1101.3601191490      1.46E-07
   19   -1101.3601191775      7.24E-08
   20   -1101.3601191904      3.67E-08
   21   -1101.3601191939      1.31E-08
   22   -1101.3601191947      4.81E-09 Convergence criterion met
 ---------------------------------------
 <S^2> = 1.0413
 SCF time:  CPU 1014.17 s  wall 63.45 s
 SCF   energy in the final basis set = -1101.3601191947
 Total energy in the final basis set = -1101.3601191947
 
 Components of the MP2 correlation energy:
        aaaa  correlation energy =        -0.2340415879 au
        abab  correlation energy =        -1.2997457469 au
        bbbb  correlation energy =        -0.2108126715 au
        non-Brillouin singles    =        -0.0000000000 au

 Total  MP2   correlation energy =        -1.7446000062 au
        MP2         total energy =     -1103.1047192010 au

  Entering Z-vector solver.
   1         0           1      0.000541    0.000541
   2         0           1      0.000481    0.000481
   3         0           1      0.000305    0.000305
   4         0           1      0.000225    0.000225
   5         0           1      0.000103    0.000103
   6         0           1      0.000054    0.000054
   7         0           1      0.000032    0.000032
   8         0           1      0.000019    0.000019
   9         0           1      0.000008    0.000008
  10         0           1      0.000004    0.000004
  11         0           1      0.000001    0.000001
  12         1           0      0.000000    0.000000    Roots Converged
 Warning:  Cannot save MP2 spin density
 
 --------------------------------------------------------------
             Orbital Energies (a.u.) and Symmetries
 --------------------------------------------------------------
 Warning : Irrep of orbital(   1) could not be determined
 Warning : Irrep of orbital(   2) could not be determined
 
 Alpha MOs, Unrestricted
 -- Occupied --                  
-92.160 -92.160 -11.475 -11.474 -11.452 -11.452 -11.433 -11.433
  0 xxx   0 xxx   1 A     1 B     2 B     2 A     3 B     3 A                  
-11.404 -11.404  -9.162  -9.162  -6.843  -6.843  -6.842  -6.842
  4 A     4 B     5 B     5 A     6 B     6 A     7 A     7 B                  
 -6.840  -6.840  -1.395  -1.364  -1.232  -1.192  -1.184  -1.128
  8 A     8 B     9 A     9 B    10 A    11 A    10 B    11 B                  
 -1.001  -0.960  -0.927  -0.905  -0.891  -0.821  -0.754  -0.751
 12 A    13 A    12 B    13 B    14 A    14 B    15 A    15 B                  
 -0.749  -0.737  -0.732  -0.709  -0.693  -0.667  -0.645  -0.577
 16 A    16 B    17 A    18 A    17 B    19 A    18 B    19 B                  
 -0.536  -0.524  -0.478
 20 A    20 B    21 A                                                          
 -- Virtual --                   
 -0.122  -0.036  -0.008   0.013   0.014   0.022   0.039   0.046
 21 B    22 A    23 A    24 A    22 B    23 B    25 A    24 B                  
  0.049   0.065   0.071   0.080   0.110   0.133   0.148   0.195
 26 A    25 B    27 A    28 A    26 B    27 B    29 A    30 A                  
  0.196   0.201   0.203   0.222   0.231   0.238   0.261   0.266
 28 B    31 A    29 B    32 A    30 B    31 B    32 B    33 A                  
  0.283   0.284   0.299   0.303   0.312   0.320   0.341   0.351
 34 A    33 B    35 A    34 B    35 B    36 A    36 B    37 A                  
  0.364   0.367   0.377   0.383   0.385   0.394   0.395   0.400
 37 B    38 A    39 A    38 B    40 A    41 A    39 B    40 B                  
  0.418   0.427   0.435   0.445   0.451   0.455   0.463   0.463
 42 A    41 B    43 A    42 B    44 A    43 B    45 A    44 B                  
  0.471   0.479   0.503   0.512   0.513   0.532   0.566   0.571
 46 A    45 B    47 A    46 B    48 A    47 B    49 A    48 B                  
  0.572   0.585   0.615   0.627   0.638   0.652   0.675   0.692
 50 A    49 B    51 A    50 B    51 B    52 A    53 A    54 A                  
  0.693   0.710   0.729   0.730   0.755   0.757   0.783   0.788
 52 B    53 B    55 A    54 B    56 A    55 B    56 B    57 A                  
  0.814   0.826   0.834   0.851   0.876   0.895   0.899   0.911
 57 B    58 A    58 B    59 A    59 B    60 B    60 A    61 B                  
  0.915   0.918   0.940   0.944   0.974   0.994   1.004   1.006
 61 A    62 A    63 A    62 B    63 B    64 A    65 A    64 B                  
  1.033   1.035   1.056   1.057   1.071   1.093   1.097   1.115
 65 B    66 A    67 A    66 B    67 B    68 A    68 B    69 B                  
  1.130   1.148   1.149   1.182   1.220   1.225   1.251   1.254
 69 A    70 A    70 B    71 A    72 A    71 B    73 A    72 B                  
  1.289   1.302   1.307   1.316   1.339   1.342   1.355   1.365
 73 B    74 A    74 B    75 A    75 B    76 A    77 A    76 B                  
  1.379   1.384   1.405   1.405   1.430   1.431   1.470   1.476
 78 A    77 B    78 B    79 A    79 B    80 A    80 B    81 A                  
  1.497   1.497   1.536   1.562   1.572   1.592   1.617   1.649
 82 A    81 B    82 B    83 A    83 B    84 A    84 B    85 A                  
  1.669   1.690   1.704   1.719   1.724   1.758   1.768   1.790
 85 B    86 B    86 A    87 A    87 B    88 A    88 B    89 A                  
  1.790   1.798   1.891   1.917   1.917   1.934   1.955   1.989
 89 B    90 A    90 B    91 A    91 B    92 A    92 B    93 A                  
  2.007   2.029   2.029   2.036   2.066   2.069   2.077   2.100
 93 B    94 A    94 B    95 A    95 B    96 B    96 A    97 B                  
  2.109   2.126   2.147   2.225   2.241   2.270   2.274   2.295
 97 A    98 A    98 B    99 A    99 B   100 A   100 B   101 A                  
  2.313   2.317   2.331   2.359   2.371   2.377   2.388   2.416
102 A   101 B   102 B   103 A   104 A   103 B   104 B   105 A                  
  2.445   2.477   2.482   2.494   2.537   2.548   2.577   2.577
105 B   106 B   106 A   107 A   108 A   107 B   108 B   109 A                  
  2.588   2.589   2.620   2.624   2.637   2.697   2.708   2.722
110 A   109 B   110 B   111 A   111 B   112 A   112 B   113 A                  
  2.735   2.748   2.769   2.783   2.817   2.821   2.839   2.850
113 B   114 A   114 B   115 A   115 B   116 A   117 A   116 B                  
  2.856   2.857   2.910   2.931   2.981   2.995   3.002   3.005
118 A   117 B   118 B   119 A   119 B   120 A   121 A   120 B                  
  3.025   3.044   3.049   3.055   3.074   3.077   3.080   3.115
121 B   122 B   123 B   122 A   123 A   124 B   124 A   125 B                  
  3.118   3.126   3.139   3.143   3.167   3.182   3.214   3.215
125 A   126 A   126 B   127 A   128 A   127 B   128 B   129 A                  
  3.228   3.235   3.236   3.274   3.274   3.278   3.293   3.295
130 A   129 B   131 A   132 A   130 B   133 A   134 A   131 B                  
  3.319   3.323   3.326   3.334   3.342   3.345   3.355   3.370
132 B   133 B   135 A   134 B   136 A   135 B   137 A   136 B                  
  3.386   3.387   3.404   3.420   3.442   3.447   3.457   3.486
137 B   138 A   138 B   139 A   139 B   140 A   140 B   141 A                  
  3.511   3.513   3.541   3.561   3.569   3.575   3.601   3.618
141 B   142 B   142 A   143 B   143 A   144 A   144 B   145 A                  
  3.631   3.659   3.717   3.719   3.750   3.751   3.765   3.772
146 A   145 B   147 A   146 B   147 B   148 B   148 A   149 B                  
  3.785   3.818   3.827   3.832   3.846   3.870   3.873   3.885
149 A   150 A   151 A   150 B   151 B   152 A   153 A   152 B                  
  3.941   3.944   3.967   3.975   4.001   4.010   4.025   4.026
153 B   154 A   155 A   154 B   156 A   155 B   156 B   157 A                  
  4.037   4.039   4.052   4.054   4.114   4.126   4.135   4.144
157 B   158 A   159 A   158 B   160 A   159 B   160 B   161 A                  
  4.173   4.198   4.252   4.287   4.309   4.325   4.326   4.354
161 B   162 A   162 B   163 A   164 A   165 A   163 B   166 A                  
  4.355   4.401   4.439   4.453   4.473   4.497   4.512   4.535
164 B   165 B   166 B   167 A   168 A   167 B   169 A   168 B                  
  4.549   4.558   4.581   4.604   4.643   4.649   4.695   4.709
170 A   169 B   170 B   171 A   171 B   172 A   173 A   172 B                  
  4.726   4.805   4.812   4.854   4.872   4.893   4.902   4.913
174 A   173 B   174 B   175 A   176 A   175 B   177 A   178 A                  
  4.931   4.989   5.040   5.056   5.082   5.116   5.178   5.198
176 B   177 B   179 A   178 B   179 B   180 A   180 B   181 A                  
  5.229   5.256   5.270   5.298   5.411   5.423   5.467   5.528
182 A   181 B   182 B   183 A   184 A   183 B   184 B   185 A                  
  5.656   5.732   5.866   5.911   5.936   5.973   6.025   6.054
186 A   185 B   187 A   186 B   188 A   187 B   189 A   188 B                  
  6.252   6.363   6.420   6.533   6.680   9.235  10.956  11.708
189 B   190 A   190 B   191 A   191 B   192 A   192 B   193 A                  
 12.711  13.023  13.705  14.505  15.033
193 B   194 A   194 B   195 A   195 B                                          
 Warning : Irrep of orbital(   1) could not be determined
 Warning : Irrep of orbital(   2) could not be determined
 
 Beta MOs, Unrestricted
 -- Occupied --                  
-92.161 -92.161 -11.475 -11.474 -11.439 -11.439 -11.426 -11.426
  0 xxx   0 xxx   1 A     1 B     2 B     2 A     3 B     3 A                  
-11.411 -11.411  -9.164  -9.164  -6.845  -6.845  -6.844  -6.844
  4 B     4 A     5 B     5 A     6 B     6 A     7 B     7 A                  
 -6.843  -6.843  -1.383  -1.349  -1.222  -1.187  -1.175  -1.104
  8 B     8 A     9 A     9 B    10 A    11 A    10 B    11 B                  
 -0.993  -0.952  -0.916  -0.900  -0.888  -0.817  -0.753  -0.742
 12 A    13 A    12 B    13 B    14 A    14 B    15 A    16 A                  
 -0.734  -0.728  -0.722  -0.683  -0.668  -0.661  -0.644  -0.538
 15 B    17 A    16 B    17 B    18 A    19 A    18 B    19 B                  
 -0.533  -0.512
 20 A    20 B                                                                  
 -- Virtual --                   
 -0.183  -0.057  -0.020   0.009   0.017   0.024   0.030   0.043
 21 A    21 B    22 A    23 A    24 A    22 B    23 B    25 A                  
  0.048   0.062   0.067   0.072   0.093   0.113   0.136   0.150
 24 B    26 A    25 B    27 A    28 A    26 B    27 B    29 A                  
  0.198   0.199   0.205   0.209   0.222   0.232   0.239   0.271
 30 A    28 B    31 A    29 B    32 A    30 B    31 B    32 B                  
  0.274   0.286   0.293   0.302   0.312   0.316   0.319   0.334
 33 A    34 A    33 B    35 A    34 B    35 B    36 A    36 B                  
  0.356   0.374   0.379   0.392   0.393   0.396   0.405   0.410
 37 A    38 A    37 B    38 B    39 A    40 A    39 B    41 A                  
  0.413   0.425   0.428   0.440   0.446   0.455   0.460   0.467
 40 B    42 A    41 B    43 A    42 B    44 A    43 B    44 B                  
  0.469   0.476   0.485   0.508   0.516   0.517   0.537   0.570
 45 A    46 A    45 B    47 A    46 B    48 A    47 B    49 A                  
  0.573   0.574   0.590   0.617   0.628   0.640   0.653   0.678
 50 A    48 B    49 B    51 A    50 B    51 B    52 A    53 A                  
  0.696   0.697   0.716   0.734   0.737   0.759   0.761   0.790
 52 B    54 A    53 B    55 A    54 B    56 A    55 B    56 B                  
  0.792   0.817   0.830   0.835   0.853   0.879   0.897   0.900
 57 A    57 B    58 A    58 B    59 A    59 B    60 B    60 A                  
  0.915   0.919   0.923   0.949   0.950   0.976   0.996   1.007
 61 B    61 A    62 A    62 B    63 A    63 B    64 A    65 A                  
  1.010   1.038   1.038   1.058   1.059   1.072   1.098   1.102
 64 B    66 A    65 B    67 A    66 B    67 B    68 A    68 B                  
  1.117   1.131   1.155   1.155   1.186   1.227   1.234   1.256
 69 B    69 A    70 A    70 B    71 A    72 A    71 B    72 B                  
  1.260   1.293   1.308   1.312   1.320   1.343   1.346   1.356
 73 A    73 B    74 A    74 B    75 A    75 B    76 A    77 A                  
  1.370   1.383   1.385   1.406   1.407   1.432   1.434   1.476
 76 B    78 A    77 B    79 A    78 B    79 B    80 A    80 B                  
  1.479   1.500   1.500   1.537   1.565   1.575   1.594   1.620
 81 A    81 B    82 A    82 B    83 A    83 B    84 A    84 B                  
  1.652   1.669   1.689   1.703   1.719   1.728   1.761   1.768
 85 A    85 B    86 B    86 A    87 A    87 B    88 A    88 B                  
  1.790   1.791   1.799   1.891   1.916   1.918   1.937   1.956
 89 B    89 A    90 A    90 B    91 A    91 B    92 A    92 B                  
  1.988   2.006   2.029   2.030   2.037   2.065   2.070   2.077
 93 A    93 B    94 A    94 B    95 A    95 B    96 B    96 A                  
  2.116   2.122   2.132   2.148   2.225   2.252   2.268   2.275
 97 B    97 A    98 A    98 B    99 A    99 B   100 A   100 B                  
  2.300   2.315   2.318   2.335   2.361   2.388   2.390   2.393
101 A   102 A   101 B   102 B   103 A   103 B   104 A   104 B                  
  2.422   2.451   2.481   2.487   2.495   2.538   2.550   2.583
105 A   105 B   106 B   106 A   107 A   108 A   107 B   108 B                  
  2.584   2.596   2.597   2.626   2.630   2.640   2.703   2.716
109 A   110 A   109 B   110 B   111 A   111 B   112 A   112 B                  
  2.730   2.739   2.753   2.779   2.786   2.820   2.824   2.847
113 A   113 B   114 A   114 B   115 A   115 B   116 A   117 A                  
  2.856   2.861   2.865   2.913   2.936   2.988   2.994   3.007
116 B   117 B   118 A   118 B   119 A   119 B   120 A   121 A                  
  3.014   3.028   3.044   3.054   3.061   3.078   3.085   3.087
120 B   121 B   122 B   123 B   122 A   123 A   124 B   124 A                  
  3.120   3.124   3.133   3.146   3.152   3.175   3.188   3.214
125 B   125 A   126 A   126 B   127 A   128 A   127 B   128 B                  
  3.217   3.230   3.237   3.242   3.274   3.281   3.286   3.297
129 A   130 A   129 B   131 A   132 A   130 B   133 A   134 A                  
  3.298   3.321   3.334   3.337   3.344   3.347   3.351   3.363
131 B   132 B   135 A   133 B   134 B   135 B   136 A   137 A                  
  3.375   3.387   3.391   3.411   3.423   3.444   3.450   3.461
136 B   137 B   138 A   138 B   139 A   139 B   140 A   140 B                  
  3.489   3.514   3.518   3.547   3.566   3.571   3.577   3.607
141 A   141 B   142 B   142 A   143 B   143 A   144 A   144 B                  
  3.622   3.636   3.661   3.721   3.724   3.753   3.755   3.765
145 A   146 A   145 B   146 B   147 A   147 B   148 B   148 A                  
  3.774   3.787   3.820   3.829   3.836   3.851   3.873   3.876
149 B   149 A   150 A   151 A   150 B   151 B   152 A   153 A                  
  3.887   3.944   3.945   3.970   3.978   4.003   4.012   4.027
152 B   153 B   154 A   155 A   154 B   156 A   155 B   157 A                  
  4.028   4.039   4.041   4.053   4.055   4.115   4.128   4.136
156 B   157 B   158 A   159 A   158 B   160 A   159 B   160 B                  
  4.145   4.175   4.199   4.252   4.288   4.311   4.326   4.328
161 A   161 B   162 A   162 B   163 A   164 A   165 A   163 B                  
  4.355   4.357   4.403   4.443   4.457   4.475   4.498   4.514
166 A   164 B   165 B   166 B   167 A   168 A   167 B   169 A                  
  4.536   4.553   4.561   4.581   4.605   4.644   4.649   4.697
168 B   170 A   169 B   170 B   171 A   171 B   172 A   173 A                  
  4.710   4.728   4.808   4.816   4.855   4.876   4.894   4.903
172 B   174 A   173 B   174 B   175 A   176 A   175 B   177 A                  
  4.914   4.933   4.989   5.041   5.057   5.089   5.122   5.179
178 A   176 B   177 B   179 A   178 B   179 B   180 A   180 B                  
  5.200   5.230   5.256   5.272   5.298   5.412   5.424   5.468
181 A   182 A   181 B   182 B   183 A   184 A   183 B   184 B                  
  5.529   5.656   5.733   5.866   5.911   5.937   5.974   6.025
185 A   186 A   185 B   187 A   186 B   188 A   187 B   189 A                  
  6.055   6.252   6.364   6.421   6.533   6.680   9.236  10.960
188 B   189 B   190 A   190 B   191 A   191 B   192 A   192 B                  
 11.712  12.715  13.028  13.705  14.506  15.036
193 A   193 B   194 A   194 B   195 A   195 B                                  
 --------------------------------------------------------------
 
          Ground-State Mulliken Net Atomic Charges

     Atom                 Charge (a.u.)    Spin (a.u.)
  --------------------------------------------------------
      1 S                     0.250606      -0.024443
      2 C                    -0.116042      -0.002097
      3 C                    -0.161197       0.407822
      4 C                    -0.126571      -0.211900
      5 C                    -0.023617       0.332004
      6 H                     0.211040       0.019906
      7 C                    -0.023615       0.332004
      8 S                     0.250606      -0.024443
      9 C                    -0.126570      -0.211900
     10 C                    -0.116044      -0.002097
     11 C                    -0.161194       0.407822
     12 H                     0.224389      -0.032533
     13 H                     0.241390       0.011240
     14 H                     0.224388      -0.032533
     15 H                     0.241390       0.011240
     16 H                     0.211040       0.019906
  --------------------------------------------------------
  Sum of atomic charges =     1.000000
  Sum of spin   charges =     1.000000

 -----------------------------------------------------------------
                    Cartesian Multipole Moments
 -----------------------------------------------------------------
    Charge (ESU x 10^10)
                 4.8032
    Dipole Moment (Debye)
         X      -0.0000      Y      -0.0000      Z      -0.9416
       Tot       0.9416
    Quadrupole Moments (Debye-Ang)
        XX     -22.3421     XY      -0.6712     YY     -72.3071
        XZ       0.0000     YZ      -0.0000     ZZ     -56.5646
    Octopole Moments (Debye-Ang^2)
       XXX       0.0000    XXY       0.0000    XYY      -0.0000
       YYY       0.0000    XXZ       2.8780    XYZ      10.3172
       YYZ       2.9742    XZZ      -0.0000    YZZ       0.0000
       ZZZ     -11.3563
    Hexadecapole Moments (Debye-Ang^3)
      XXXX   -1253.8953   XXXY      -6.0063   XXYY    -358.3172
      XYYY       5.5413   YYYY    -119.9925   XXXZ       0.0000
      XXYZ      -0.0000   XYYZ       0.0000   YYYZ      -0.0000
      XXZZ    -322.4248   XYZZ     -10.0682   YYZZ    -106.0045
      XZZZ       0.0000   YZZZ      -0.0000   ZZZZ    -461.6969
 -----------------------------------------------------------------
 DrvMan is completing analytic gradient of the MP2 energy
 MP2 relaxed dipole moment
            1
    1  -0.0000000
    2  -0.0000000
    3  -0.3704578
	Magnitude:	 0.370 au	 0.942 Debye
 MP2 energy read as -1103.104719
 Full Analytical Gradient of MP2 Energy (in au.)
             1             2             3             4             5
    1   -0.00104513   -0.00026581   -0.00026759    0.00081139   -0.00563685
    2    0.00372655    0.00155131    0.00001339   -0.00670553    0.00163139
    3   -0.00002549    0.00016905   -0.00180955    0.00307859   -0.00081131
             6             7             8             9            10
    1    0.00068559    0.00563685    0.00104513   -0.00081139    0.00026581
    2    0.00070136   -0.00163139   -0.00372654    0.00670553   -0.00155131
    3   -0.00081781   -0.00081131   -0.00002549    0.00307859    0.00016905
            11            12            13            14            15
    1    0.00026759   -0.00003880   -0.00019472    0.00003880    0.00019472
    2   -0.00001338   -0.00084668   -0.00155631    0.00084668    0.00155631
    3   -0.00180955   -0.00025868    0.00047518   -0.00025868    0.00047518
            16
    1   -0.00068559
    2   -0.00070136
    3   -0.00081781
 Gradient time:  CPU 1.46 s  wall 0.10 s
 Geometry Optimization Parameters
   NAtoms,    NIC,     NZ,  NCons,   NDum,   NFix, NCnnct, MaxDiis
       16     111       0       1       0       0       0       0


** CONSTRAINED OPTIMIZATION IN DELOCALIZED INTERNAL COORDINATES **
   Searching for a Minimum

   Optimization Cycle:   1

                       Coordinates (Angstroms)
     ATOM                X               Y               Z
      1  S         1.6000272331    0.3343934126    1.1084389817
      2  C         3.0349735454    0.0730077998    0.3187046403
      3  C         2.8907313326   -0.2793893135   -1.0140972128
      4  C         1.5758879605   -0.3327780939   -1.3831206081
      5  C         0.6978659971   -0.0242718287   -0.3463545478
      6  H         1.2415764406   -0.5868155185   -2.3740500649
      7  C        -0.6978659971    0.0242718287   -0.3463545478
      8  S        -1.6000272331   -0.3343934126    1.1084389817
      9  C        -1.5758879605    0.3327780939   -1.3831206081
     10  C        -3.0349735454   -0.0730077998    0.3187046403
     11  C        -2.8907313326    0.2793893135   -1.0140972128
     12  H        -3.7258881521    0.4806566039   -1.6576823724
     13  H         3.9654230475    0.1824181344    0.8459151130
     14  H         3.7258881521   -0.4806566039   -1.6576823724
     15  H        -3.9654230475   -0.1824181344    0.8459151130
     16  H        -1.2415764406    0.5868155185   -2.3740500649
   Point Group: c2    Number of degrees of freedom:    22


   Energy is  -1103.104719201

              Constraints and their Current Values
                                        Value     Constraint
   Dihedral:        4   5   7   9      -30.000      -30.000

 Attempting to Generate Delocalized Internal Coordinates

 21 Hessian modes will be used to form the next step
  Hessian Eigenvalues:
     0.045000    0.045000    0.045000    0.045000    0.045000    0.045000
     0.160000    0.160000    0.160000    0.221335    0.237679    0.250000
     0.299411    0.364554    0.366034    0.368031    0.392996    0.445237
     0.461927    0.467905    0.501257

 Minimum Search - Taking Simple RFO Step
 Searching for Lamda that Minimizes Along All modes
 Value Taken    Lamda =  -0.00119258
 Step Taken.  Stepsize is  0.142932

                             Maximum     Tolerance    Cnvgd?
         Gradient           0.005747      0.000300      NO
         Displacement       0.071022      0.001200      NO
         Energy change     *********      0.000001      NO


 New Cartesian Coordinates Obtained by Inverse Iteration

 Displacement from previous Coordinates is:  0.198473
 ----------------------------------------------------------------
             Standard Nuclear Orientation (Angstroms)
    I     Atom           X                Y                Z
 ----------------------------------------------------------------
    1      S       1.6173934435     0.3012977545     1.1232069724
    2      C       3.0462222734     0.0619940795     0.3159437528
    3      C       2.8885837726    -0.2700797207    -1.0193915621
    4      C       1.5703632946    -0.3061168607    -1.3814513442
    5      C       0.7015541799    -0.0113670472    -0.3341037001
    6      H       1.2224763820    -0.5526750661    -2.3690027306
    7      C      -0.7015541799     0.0113670472    -0.3341037001
    8      S      -1.6173934435    -0.3012977545     1.1232069724
    9      C      -1.5703632946     0.3061168607    -1.3814513442
   10      C      -3.0462222734    -0.0619940795     0.3159437528
   11      C      -2.8885837726     0.2700797207    -1.0193915621
   12      H      -3.7174548768     0.4708571241    -1.6711403326
   13      H       3.9821137168     0.1715020537     0.8336928735
   14      H       3.7174548768    -0.4708571241    -1.6711403326
   15      H      -3.9821137168    -0.1715020537     0.8336928735
   16      H      -1.2224763820     0.5526750661    -2.3690027306
 ----------------------------------------------------------------
 Molecular Point Group                 C2    NOp =  2
 Largest Abelian Subgroup              C2    NOp =  2
 Nuclear Repulsion Energy =   642.3723390712 hartrees
 There are       43 alpha and       42 beta electrons
 Applying Cartesian multipole field
    Component          Value
    ---------          -----
     (2,0,0)        1.00000E-11
     (0,2,0)        2.00000E-10
     (0,0,2)       -3.00000E-11
 Nucleus-field energy     =     0.0000000080 hartrees
 Requested basis set is cc-pVTZ
 There are 140 shells and 392 basis functions
 A cutoff of  1.0D-11 yielded   8060 shell pairs
 There are     62592 function pairs (     81576 Cartesian)
 Smallest overlap matrix eigenvalue = 6.23E-05
 Guess MOs from SCF MO coefficient file
 Reading MOs from coefficient file
 Reading MOs from coefficient file
 An unrestricted Hartree-Fock SCF calculation will be
 performed using Pulay DIIS extrapolation
 SCF converges when DIIS error is below 1.0E-08
 Geometry optimization detected.  Setting ReadMinima to 0
 Setting SaveMinima to 0
 using 16 threads for integral computing 
 ---------------------------------------
  Cycle       Energy         DIIS Error
 ---------------------------------------
    1   -1101.3546839007      4.75E-04
    2   -1101.3616941253      5.71E-05
    3   -1101.3618459234      2.25E-05
    4   -1101.3618689917      1.26E-05
    5   -1101.3618748743      3.79E-06
    6   -1101.3618757833      1.25E-06
    7   -1101.3618760318      5.59E-07
    8   -1101.3618760978      2.48E-07
    9   -1101.3618761344      1.57E-07
   10   -1101.3618761538      1.18E-07
   11   -1101.3618761710      7.58E-08
   12   -1101.3618761806      4.38E-08
   13   -1101.3618761845      2.15E-08
   14   -1101.3618761853      1.23E-08
   15   -1101.3618761854      6.19E-09 Convergence criterion met
 ---------------------------------------
 <S^2> = 1.0416
 SCF time:  CPU 1127.12 s  wall 70.49 s
 SCF   energy in the final basis set = -1101.3618761854
 Total energy in the final basis set = -1101.3618761854
 
 Components of the MP2 correlation energy:
        aaaa  correlation energy =        -0.2338692353 au
        abab  correlation energy =        -1.2993218211 au
        bbbb  correlation energy =        -0.2107177459 au
        non-Brillouin singles    =        -0.0000000000 au

 Total  MP2   correlation energy =        -1.7439088023 au
        MP2         total energy =     -1103.1057849877 au

  Entering Z-vector solver.
   1         0           1      0.000540    0.000540
   2         0           1      0.000479    0.000479
   3         0           1      0.000302    0.000302
   4         0           1      0.000221    0.000221
   5         0           1      0.000101    0.000101
   6         0           1      0.000053    0.000053
   7         0           1      0.000031    0.000031
   8         0           1      0.000018    0.000018
   9         0           1      0.000008    0.000008
  10         0           1      0.000003    0.000003
  11         0           1      0.000001    0.000001
  12         1           0      0.000000    0.000000    Roots Converged
 Warning:  Cannot save MP2 spin density
 
 --------------------------------------------------------------
             Orbital Energies (a.u.) and Symmetries
 --------------------------------------------------------------
 
 Alpha MOs, Unrestricted
 -- Occupied --                  
-92.160 -92.160 -11.476 -11.475 -11.452 -11.452 -11.434 -11.434
  1 A     1 B     2 A     2 B     3 B     3 A     4 B     4 A                  
-11.404 -11.404  -9.162  -9.162  -6.843  -6.843  -6.842  -6.842
  5 A     5 B     6 B     6 A     7 B     7 A     8 A     8 B                  
 -6.840  -6.840  -1.394  -1.364  -1.232  -1.192  -1.184  -1.129
  9 A     9 B    10 A    10 B    11 A    12 A    11 B    12 B                  
 -1.000  -0.961  -0.927  -0.905  -0.891  -0.822  -0.753  -0.752
 13 A    14 A    13 B    14 B    15 A    15 B    16 A    16 B                  
 -0.749  -0.737  -0.732  -0.710  -0.693  -0.667  -0.644  -0.579
 17 A    17 B    18 A    19 A    18 B    20 A    19 B    20 B                  
 -0.536  -0.524  -0.478
 21 A    21 B    22 A                                                          
 -- Virtual --                   
 -0.123  -0.034  -0.008   0.013   0.015   0.022   0.040   0.045
 22 B    23 A    24 A    25 A    23 B    24 B    26 A    25 B                  
  0.050   0.065   0.070   0.078   0.111   0.135   0.147   0.195
 27 A    26 B    28 A    29 A    27 B    28 B    30 A    31 A                  
  0.196   0.200   0.206   0.222   0.228   0.239   0.261   0.265
 29 B    32 A    30 B    33 A    31 B    32 B    33 B    34 A                  
  0.283   0.284   0.301   0.302   0.313   0.320   0.342   0.350
 35 A    34 B    36 A    35 B    36 B    37 A    37 B    38 A                  
  0.364   0.367   0.379   0.382   0.383   0.395   0.396   0.402
 38 B    39 A    40 A    39 B    41 A    42 A    40 B    41 B                  
  0.417   0.425   0.437   0.444   0.452   0.455   0.463   0.463
 43 A    42 B    44 A    43 B    45 A    44 B    45 B    46 A                  
  0.472   0.480   0.501   0.512   0.513   0.531   0.568   0.569
 47 A    46 B    48 A    47 B    49 A    48 B    50 A    49 B                  
  0.572   0.587   0.615   0.628   0.643   0.650   0.675   0.691
 51 A    50 B    52 A    51 B    52 B    53 A    54 A    55 A                  
  0.692   0.712   0.726   0.733   0.755   0.759   0.779   0.784
 53 B    54 B    56 A    55 B    57 A    56 B    57 B    58 A                  
  0.815   0.826   0.830   0.850   0.878   0.901   0.903   0.913
 58 B    59 A    59 B    60 A    60 B    61 A    61 B    62 A                  
  0.915   0.917   0.941   0.941   0.972   0.994   1.001   1.002
 62 B    63 A    63 B    64 A    64 B    65 A    66 A    65 B                  
  1.032   1.037   1.055   1.056   1.074   1.094   1.095   1.116
 66 B    67 A    67 B    68 A    68 B    69 A    69 B    70 B                  
  1.127   1.147   1.147   1.177   1.214   1.224   1.249   1.258
 70 A    71 B    71 A    72 A    73 A    72 B    74 A    73 B                  
  1.289   1.297   1.311   1.311   1.342   1.344   1.354   1.365
 74 B    75 A    76 A    75 B    77 A    76 B    78 A    77 B                  
  1.383   1.385   1.403   1.404   1.430   1.432   1.470   1.475
 79 A    78 B    79 B    80 A    81 A    80 B    81 B    82 A                  
  1.493   1.495   1.535   1.561   1.575   1.592   1.634   1.647
 83 A    82 B    83 B    84 A    84 B    85 A    85 B    86 A                  
  1.672   1.691   1.700   1.718   1.719   1.757   1.760   1.788
 86 B    87 B    87 A    88 B    88 A    89 A    89 B    90 B                  
  1.794   1.798   1.894   1.912   1.913   1.938   1.948   1.987
 90 A    91 A    91 B    92 A    92 B    93 A    93 B    94 A                  
  2.004   2.024   2.032   2.036   2.065   2.071   2.074   2.100
 94 B    95 A    95 B    96 A    96 B    97 B    97 A    98 B                  
  2.107   2.124   2.143   2.231   2.235   2.266   2.275   2.300
 98 A    99 A    99 B   100 A   100 B   101 A   101 B   102 A                  
  2.314   2.316   2.328   2.357   2.371   2.374   2.395   2.413
103 A   102 B   103 B   104 A   105 A   104 B   105 B   106 A                  
  2.446   2.483   2.484   2.494   2.534   2.553   2.575   2.576
106 B   107 A   107 B   108 A   109 A   108 B   109 B   110 A                  
  2.587   2.591   2.623   2.623   2.636   2.698   2.710   2.720
111 A   110 B   111 B   112 A   112 B   113 A   113 B   114 A                  
  2.730   2.748   2.766   2.779   2.815   2.821   2.838   2.853
114 B   115 A   115 B   116 A   116 B   117 A   118 A   117 B                  
  2.856   2.860   2.916   2.924   2.980   2.990   2.997   3.005
119 A   118 B   119 B   120 A   120 B   121 A   122 A   121 B                  
  3.028   3.046   3.052   3.056   3.070   3.074   3.079   3.116
122 B   123 B   123 A   124 B   124 A   125 B   125 A   126 B                  
  3.120   3.126   3.136   3.138   3.169   3.180   3.210   3.216
126 A   127 A   127 B   128 A   129 A   128 B   130 A   129 B                  
  3.229   3.237   3.240   3.272   3.272   3.277   3.292   3.296
131 A   132 A   130 B   131 B   133 A   134 A   135 A   132 B                  
  3.320   3.322   3.328   3.331   3.343   3.347   3.355   3.372
133 B   134 B   136 A   135 B   137 A   136 B   138 A   137 B                  
  3.382   3.386   3.405   3.419   3.436   3.445   3.450   3.488
138 B   139 A   139 B   140 A   140 B   141 A   141 B   142 A                  
  3.511   3.514   3.542   3.558   3.568   3.575   3.604   3.617
142 B   143 B   143 A   144 B   144 A   145 A   145 B   146 A                  
  3.628   3.655   3.717   3.720   3.742   3.750   3.759   3.774
147 A   146 B   148 A   147 B   148 B   149 B   149 A   150 B                  
  3.789   3.817   3.827   3.835   3.845   3.868   3.874   3.885
150 A   151 A   152 A   151 B   152 B   153 A   154 A   153 B                  
  3.940   3.943   3.969   3.976   3.995   4.014   4.023   4.024
155 A   154 B   156 A   155 B   157 A   156 B   158 A   157 B                  
  4.039   4.039   4.049   4.053   4.110   4.131   4.138   4.141
158 B   159 A   160 A   159 B   161 A   160 B   161 B   162 A                  
  4.176   4.199   4.253   4.287   4.314   4.320   4.327   4.351
162 B   163 A   163 B   164 A   165 A   166 A   164 B   167 A                  
  4.356   4.404   4.437   4.451   4.473   4.499   4.510   4.537
165 B   166 B   167 B   168 A   169 A   168 B   170 A   169 B                  
  4.547   4.556   4.584   4.601   4.645   4.653   4.692   4.713
171 A   170 B   171 B   172 A   173 A   172 B   174 A   173 B                  
  4.723   4.808   4.813   4.845   4.865   4.893   4.901   4.912
175 A   174 B   175 B   176 A   177 A   176 B   178 A   179 A                  
  4.932   4.989   5.040   5.051   5.080   5.113   5.178   5.190
177 B   178 B   180 A   179 B   180 B   181 A   181 B   182 A                  
  5.228   5.257   5.268   5.298   5.411   5.425   5.465   5.526
183 A   182 B   183 B   184 A   185 A   184 B   185 B   186 A                  
  5.653   5.732   5.861   5.907   5.935   5.972   6.019   6.060
187 A   186 B   188 A   187 B   189 A   188 B   190 A   189 B                  
  6.271   6.363   6.428   6.529   6.671   9.209  10.941  11.705
190 B   191 A   191 B   192 A   192 B   193 A   193 B   194 A                  
 12.652  13.027  13.696  14.500  15.022
194 B   195 A   195 B   196 A   196 B                                          
 
 Beta MOs, Unrestricted
 -- Occupied --                  
-92.161 -92.161 -11.476 -11.475 -11.439 -11.439 -11.426 -11.426
  1 A     1 B     2 A     2 B     3 B     3 A     4 B     4 A                  
-11.410 -11.410  -9.164  -9.164  -6.845  -6.845  -6.844  -6.844
  5 B     5 A     6 B     6 A     7 B     7 A     8 B     8 A                  
 -6.843  -6.843  -1.383  -1.349  -1.221  -1.187  -1.175  -1.105
  9 B     9 A    10 A    10 B    11 A    12 A    11 B    12 B                  
 -0.992  -0.952  -0.916  -0.900  -0.889  -0.818  -0.752  -0.743
 13 A    14 A    13 B    14 B    15 A    15 B    16 A    17 A                  
 -0.735  -0.729  -0.721  -0.684  -0.668  -0.661  -0.643  -0.538
 16 B    18 A    17 B    18 B    19 A    20 A    19 B    20 B                  
 -0.533  -0.513
 21 A    21 B                                                                  
 -- Virtual --                   
 -0.183  -0.057  -0.020   0.009   0.018   0.024   0.031   0.043
 22 A    22 B    23 A    24 A    25 A    23 B    24 B    26 A                  
  0.047   0.061   0.068   0.072   0.092   0.114   0.138   0.149
 25 B    27 A    26 B    28 A    29 A    27 B    28 B    30 A                  
  0.199   0.199   0.203   0.211   0.222   0.229   0.240   0.270
 31 A    29 B    32 A    30 B    33 A    31 B    32 B    33 B                  
  0.273   0.286   0.293   0.303   0.313   0.317   0.320   0.336
 34 A    35 A    34 B    36 A    35 B    36 B    37 A    37 B                  
  0.356   0.374   0.378   0.391   0.392   0.395   0.407   0.413
 38 A    39 A    38 B    39 B    40 A    41 A    40 B    42 A                  
  0.415   0.425   0.427   0.442   0.446   0.457   0.461   0.467
 41 B    43 A    42 B    44 A    43 B    45 A    44 B    45 B                  
  0.469   0.477   0.485   0.507   0.516   0.517   0.536   0.570
 46 A    47 A    46 B    48 A    49 A    47 B    48 B    50 A                  
  0.572   0.574   0.593   0.617   0.629   0.645   0.651   0.678
 49 B    51 A    50 B    52 A    51 B    52 B    53 A    54 A                  
  0.695   0.696   0.718   0.732   0.739   0.758   0.762   0.786
 53 B    55 A    54 B    56 A    55 B    57 A    56 B    57 B                  
  0.787   0.819   0.829   0.831   0.852   0.881   0.902   0.905
 58 A    58 B    59 A    59 B    60 A    60 B    61 A    61 B                  
  0.917   0.919   0.922   0.946   0.951   0.975   0.997   1.004
 62 A    62 B    63 A    63 B    64 A    64 B    65 A    66 A                  
  1.006   1.037   1.040   1.057   1.058   1.074   1.099   1.099
 65 B    66 B    67 A    67 B    68 A    68 B    69 A    69 B                  
  1.118   1.129   1.153   1.155   1.180   1.221   1.233   1.259
 70 B    70 A    71 B    71 A    72 A    73 A    72 B    74 A                  
  1.260   1.295   1.302   1.315   1.316   1.345   1.348   1.355
 73 B    74 B    75 A    76 A    75 B    77 A    76 B    78 A                  
  1.370   1.386   1.387   1.406   1.406   1.434   1.435   1.477
 77 B    78 B    79 A    80 A    79 B    81 A    80 B    81 B                  
  1.478   1.496   1.497   1.536   1.565   1.578   1.594   1.637
 82 A    83 A    82 B    83 B    84 A    84 B    85 A    85 B                  
  1.649   1.672   1.690   1.699   1.719   1.723   1.760   1.761
 86 A    86 B    87 B    87 A    88 A    88 B    89 A    89 B                  
  1.788   1.795   1.798   1.894   1.912   1.914   1.941   1.949
 90 B    90 A    91 A    91 B    92 A    92 B    93 A    93 B                  
  1.987   2.003   2.025   2.032   2.037   2.065   2.071   2.074
 94 A    94 B    95 A    95 B    96 A    96 B    97 B    97 A                  
  2.116   2.119   2.131   2.145   2.231   2.248   2.266   2.273
 98 B    98 A    99 A    99 B   100 A   100 B   101 A   101 B                  
  2.305   2.317   2.318   2.332   2.360   2.386   2.390   2.398
102 A   103 A   102 B   103 B   104 A   104 B   105 A   105 B                  
  2.419   2.453   2.487   2.488   2.495   2.535   2.555   2.581
106 A   106 B   107 A   107 B   108 A   109 A   108 B   109 B                  
  2.583   2.596   2.597   2.629   2.629   2.640   2.703   2.717
110 A   111 A   110 B   111 B   112 A   112 B   113 A   113 B                  
  2.728   2.734   2.752   2.776   2.781   2.818   2.824   2.846
114 A   114 B   115 A   115 B   116 A   116 B   117 A   118 A                  
  2.861   2.863   2.865   2.919   2.931   2.986   2.991   3.000
117 B   118 B   119 A   119 B   120 A   120 B   121 A   122 A                  
  3.016   3.031   3.046   3.057   3.061   3.075   3.083   3.085
121 B   122 B   123 B   123 A   124 B   124 A   125 B   125 A                  
  3.122   3.123   3.134   3.143   3.148   3.177   3.185   3.213
126 B   126 A   127 A   127 B   128 A   129 A   128 B   130 A                  
  3.216   3.231   3.242   3.243   3.273   3.279   3.285   3.296
129 B   131 A   130 B   132 A   133 A   131 B   134 A   135 A                  
  3.299   3.323   3.333   3.336   3.343   3.350   3.351   3.363
132 B   133 B   134 B   136 A   135 B   136 B   137 A   138 A                  
  3.377   3.383   3.389   3.413   3.422   3.438   3.448   3.454
137 B   138 B   139 A   139 B   140 A   140 B   141 A   141 B                  
  3.490   3.515   3.518   3.548   3.563   3.571   3.578   3.610
142 A   142 B   143 B   143 A   144 B   144 A   145 A   145 B                  
  3.622   3.633   3.657   3.721   3.724   3.746   3.753   3.760
146 A   147 A   146 B   147 B   148 A   148 B   149 B   149 A                  
  3.777   3.791   3.820   3.830   3.839   3.850   3.870   3.877
150 B   150 A   151 A   152 A   151 B   152 B   153 A   154 A                  
  3.887   3.941   3.945   3.972   3.979   3.997   4.015   4.023
153 B   155 A   154 B   156 A   155 B   157 A   156 B   158 A                  
  4.027   4.041   4.041   4.050   4.054   4.111   4.133   4.139
157 B   158 B   159 A   160 A   159 B   161 A   160 B   161 B                  
  4.143   4.178   4.201   4.253   4.289   4.315   4.321   4.329
162 A   162 B   163 A   163 B   164 A   165 A   166 A   164 B                  
  4.352   4.357   4.406   4.442   4.455   4.476   4.499   4.511
167 A   165 B   166 B   167 B   168 A   169 A   168 B   170 A                  
  4.538   4.550   4.559   4.585   4.602   4.645   4.654   4.693
169 B   171 A   170 B   171 B   172 A   173 A   172 B   174 A                  
  4.714   4.726   4.812   4.815   4.846   4.869   4.894   4.902
173 B   175 A   174 B   175 B   176 A   177 A   176 B   178 A                  
  4.914   4.934   4.990   5.041   5.052   5.087   5.119   5.179
179 A   177 B   178 B   180 A   179 B   180 B   181 A   181 B                  
  5.192   5.229   5.258   5.269   5.298   5.412   5.426   5.467
182 A   183 A   182 B   183 B   184 A   185 A   184 B   185 B                  
  5.527   5.654   5.733   5.862   5.908   5.936   5.972   6.019
186 A   187 A   186 B   188 A   187 B   189 A   188 B   190 A                  
  6.061   6.271   6.364   6.429   6.530   6.672   9.211  10.945
189 B   190 B   191 A   191 B   192 A   192 B   193 A   193 B                  
 11.708  12.656  13.032  13.696  14.501  15.024
194 A   194 B   195 A   195 B   196 A   196 B                                  
 --------------------------------------------------------------
 
          Ground-State Mulliken Net Atomic Charges

     Atom                 Charge (a.u.)    Spin (a.u.)
  --------------------------------------------------------
      1 S                     0.247622      -0.026767
      2 C                    -0.112466       0.002158
      3 C                    -0.167357       0.401169
      4 C                    -0.121770      -0.204220
      5 C                    -0.023570       0.329518
      6 H                     0.211280       0.019437
      7 C                    -0.023570       0.329518
      8 S                     0.247622      -0.026767
      9 C                    -0.121770      -0.204220
     10 C                    -0.112466       0.002158
     11 C                    -0.167357       0.401169
     12 H                     0.224481      -0.032142
     13 H                     0.241781       0.010847
     14 H                     0.224481      -0.032142
     15 H                     0.241781       0.010847
     16 H                     0.211280       0.019437
  --------------------------------------------------------
  Sum of atomic charges =     1.000000
  Sum of spin   charges =     1.000000

 -----------------------------------------------------------------
                    Cartesian Multipole Moments
 -----------------------------------------------------------------
    Charge (ESU x 10^10)
                 4.8032
    Dipole Moment (Debye)
         X      -0.0000      Y       0.0000      Z      -0.9292
       Tot       0.9292
    Quadrupole Moments (Debye-Ang)
        XX     -22.1493     XY      -0.7641     YY     -72.4666
        XZ       0.0000     YZ      -0.0000     ZZ     -56.5378
    Octopole Moments (Debye-Ang^2)
       XXX      -0.0000    XXY       0.0000    XYY      -0.0000
       YYY      -0.0000    XXZ       2.8082    XYZ       9.8340
       YYZ       2.6152    XZZ      -0.0000    YZZ       0.0000
       ZZZ     -12.3943
    Hexadecapole Moments (Debye-Ang^3)
      XXXX   -1258.1355   XXXY      -4.4953   XXYY    -359.9453
      XYYY       7.1421   YYYY    -114.9842   XXXZ      -0.0000
      XXYZ      -0.0000   XYYZ      -0.0000   YYYZ      -0.0000
      XXZZ    -325.0784   XYZZ      -9.4426   YYZZ    -106.6246
      XZZZ       0.0000   YZZZ      -0.0000   ZZZZ    -466.2701
 -----------------------------------------------------------------
 DrvMan is completing analytic gradient of the MP2 energy
 MP2 relaxed dipole moment
            1
    1  -0.0000000
    2   0.0000000
    3  -0.3655773
	Magnitude:	 0.366 au	 0.929 Debye
 MP2 energy read as -1103.105785
 Full Analytical Gradient of MP2 Energy (in au.)
             1             2             3             4             5
    1    0.00083131    0.00005672   -0.00003294   -0.00032084    0.00014864
    2    0.00132141    0.00189346   -0.00056708   -0.00488003    0.00417254
    3   -0.00021025    0.00051561   -0.00008708    0.00251284   -0.00277501
             6             7             8             9            10
    1    0.00009915   -0.00014864   -0.00083131    0.00032084   -0.00005672
    2    0.00016820   -0.00417254   -0.00132141    0.00488003   -0.00189346
    3   -0.00010507   -0.00277501   -0.00021025    0.00251284    0.00051561
            11            12            13            14            15
    1    0.00003294   -0.00003838    0.00006570    0.00003838   -0.00006570
    2    0.00056708   -0.00037179   -0.00070418    0.00037179    0.00070418
    3   -0.00008708   -0.00002460    0.00017355   -0.00002460    0.00017355
            16
    1   -0.00009915
    2   -0.00016820
    3   -0.00010507
 Gradient time:  CPU 1.54 s  wall 0.10 s
 Geometry Optimization Parameters
   NAtoms,    NIC,     NZ,  NCons,   NDum,   NFix, NCnnct, MaxDiis
       16     111       0       1       0       0       0       0

 Cartesian Hessian Update
 Hessian Updated using BFGS Update


** CONSTRAINED OPTIMIZATION IN DELOCALIZED INTERNAL COORDINATES **
   Searching for a Minimum

   Optimization Cycle:   2

                       Coordinates (Angstroms)
     ATOM                X               Y               Z
      1  S         1.6173934435    0.3012977545    1.1232069724
      2  C         3.0462222734    0.0619940795    0.3159437528
      3  C         2.8885837726   -0.2700797207   -1.0193915621
      4  C         1.5703632946   -0.3061168607   -1.3814513442
      5  C         0.7015541799   -0.0113670472   -0.3341037001
      6  H         1.2224763820   -0.5526750661   -2.3690027306
      7  C        -0.7015541799    0.0113670472   -0.3341037001
      8  S        -1.6173934435   -0.3012977545    1.1232069724
      9  C        -1.5703632946    0.3061168607   -1.3814513442
     10  C        -3.0462222734   -0.0619940795    0.3159437528
     11  C        -2.8885837726    0.2700797207   -1.0193915621
     12  H        -3.7174548768    0.4708571241   -1.6711403326
     13  H         3.9821137168    0.1715020537    0.8336928735
     14  H         3.7174548768   -0.4708571241   -1.6711403326
     15  H        -3.9821137168   -0.1715020537    0.8336928735
     16  H        -1.2224763820    0.5526750661   -2.3690027306
   Point Group: c2    Number of degrees of freedom:    22


   Energy is  -1103.105784988

              Constraints and their Current Values
                                        Value     Constraint
   Dihedral:        4   5   7   9      -30.000      -30.000
 Hessian Updated using BFGS Update

 16 Hessian modes will be used to form the next step
  Hessian Eigenvalues:
     0.019852    0.049976    0.159888    0.160849    0.222645    0.229636
     0.248747    0.303105    0.364650    0.366087    0.368036    0.393643
     0.445020    0.467615    0.492373    0.531006

 Minimum Search - Taking Simple RFO Step
 Searching for Lamda that Minimizes Along All modes
 Value Taken    Lamda =  -0.00092174
 Step Taken.  Stepsize is  0.204474

                             Maximum     Tolerance    Cnvgd?
         Gradient           0.003097      0.000300      NO
         Displacement       0.144500      0.001200      NO
         Energy change     -0.001066      0.000001      NO


 New Cartesian Coordinates Obtained by Inverse Iteration

 Displacement from previous Coordinates is:  0.317815
 ----------------------------------------------------------------
             Standard Nuclear Orientation (Angstroms)
    I     Atom           X                Y                Z
 ----------------------------------------------------------------
    1      S       1.6276212627     0.2585057000     1.1441403201
    2      C       3.0480859170     0.0357681661     0.3146830155
    3      C       2.8794048835    -0.2491267376    -1.0290087658
    4      C       1.5586864507    -0.2616498590    -1.3811654791
    5      C       0.7019339261     0.0106837310    -0.3162595799
    6      H       1.1962797125    -0.4893332271    -2.3677291605
    7      C      -0.7019339261    -0.0106837310    -0.3162595799
    8      S      -1.6276212627    -0.2585057000     1.1441403201
    9      C      -1.5586864507     0.2616498590    -1.3811654791
   10      C      -3.0480859170    -0.0357681661     0.3146830155
   11      C      -2.8794048835     0.2491267376    -1.0290087658
   12      H      -3.7009491511     0.4437803259    -1.6918812768
   13      H       3.9889808421     0.1356945084     0.8249748556
   14      H       3.7009491511    -0.4437803259    -1.6918812768
   15      H      -3.9889808421    -0.1356945084     0.8249748556
   16      H      -1.1962797125     0.4893332271    -2.3677291605
 ----------------------------------------------------------------
 Molecular Point Group                 C2    NOp =  2
 Largest Abelian Subgroup              C2    NOp =  2
 Nuclear Repulsion Energy =   642.3783218838 hartrees
 There are       43 alpha and       42 beta electrons
 Applying Cartesian multipole field
    Component          Value
    ---------          -----
     (2,0,0)        1.00000E-11
     (0,2,0)        2.00000E-10
     (0,0,2)       -3.00000E-11
 Nucleus-field energy     =     0.0000000068 hartrees
 Requested basis set is cc-pVTZ
 There are 140 shells and 392 basis functions
 A cutoff of  1.0D-11 yielded   8068 shell pairs
 There are     62656 function pairs (     81652 Cartesian)
 Smallest overlap matrix eigenvalue = 6.89E-05
 Guess MOs from SCF MO coefficient file
 Reading MOs from coefficient file
 Reading MOs from coefficient file
 An unrestricted Hartree-Fock SCF calculation will be
 performed using Pulay DIIS extrapolation
 SCF converges when DIIS error is below 1.0E-08
 Geometry optimization detected.  Setting ReadMinima to 0
 Setting SaveMinima to 0
 using 16 threads for integral computing 
 ---------------------------------------
  Cycle       Energy         DIIS Error
 ---------------------------------------
    1   -1101.3532435701      7.04E-04
    2   -1101.3630703160      8.80E-05
    3   -1101.3634497391      3.39E-05
    4   -1101.3635152922      1.56E-05
    5   -1101.3635280399      5.70E-06
    6   -1101.3635306963      2.35E-06
    7   -1101.3635317278      1.29E-06
    8   -1101.3635321862      5.90E-07
    9   -1101.3635325098      4.69E-07
   10   -1101.3635327525      3.43E-07
   11   -1101.3635329900      1.81E-07
   12   -1101.3635330515      8.09E-08
   13   -1101.3635330614      3.54E-08
   14   -1101.3635330630      2.05E-08
   15   -1101.3635330636      1.07E-08
   16   -1101.3635330651      5.08E-09 Convergence criterion met
 ---------------------------------------
 <S^2> = 1.0475
 SCF time:  CPU 1240.43 s  wall 77.58 s
 SCF   energy in the final basis set = -1101.3635330651
 Total energy in the final basis set = -1101.3635330651
 
 Components of the MP2 correlation energy:
        aaaa  correlation energy =        -0.2338062558 au
        abab  correlation energy =        -1.2985431786 au
        bbbb  correlation energy =        -0.2104540937 au
        non-Brillouin singles    =        -0.0000000000 au

 Total  MP2   correlation energy =        -1.7428035280 au
        MP2         total energy =     -1103.1063365931 au

  Entering Z-vector solver.
   1         0           1      0.000540    0.000540
   2         0           1      0.000477    0.000477
   3         0           1      0.000295    0.000295
   4         0           1      0.000212    0.000212
   5         0           1      0.000095    0.000095
   6         0           1      0.000049    0.000049
   7         0           1      0.000029    0.000029
   8         0           1      0.000017    0.000017
   9         0           1      0.000007    0.000007
  10         0           1      0.000003    0.000003
  11         0           1      0.000001    0.000001
  12         1           0      0.000000    0.000000    Roots Converged
 Warning:  Cannot save MP2 spin density
 
 --------------------------------------------------------------
             Orbital Energies (a.u.) and Symmetries
 --------------------------------------------------------------
 
 Alpha MOs, Unrestricted
 -- Occupied --                  
-92.160 -92.160 -11.476 -11.475 -11.451 -11.451 -11.434 -11.434
  1 A     1 B     2 A     2 B     3 B     3 A     4 B     4 A                  
-11.403 -11.403  -9.163  -9.163  -6.843  -6.843  -6.843  -6.843
  5 A     5 B     6 B     6 A     7 B     7 A     8 A     8 B                  
 -6.841  -6.841  -1.395  -1.365  -1.232  -1.192  -1.183  -1.129
  9 A     9 B    10 A    10 B    11 A    12 A    11 B    12 B                  
 -1.000  -0.961  -0.926  -0.905  -0.891  -0.822  -0.753  -0.752
 13 A    14 A    13 B    14 B    15 A    15 B    16 B    16 A                  
 -0.749  -0.736  -0.732  -0.711  -0.692  -0.668  -0.645  -0.582
 17 A    17 B    18 A    19 A    18 B    20 A    19 B    20 B                  
 -0.535  -0.526  -0.477
 21 A    21 B    22 A                                                          
 -- Virtual --                   
 -0.125  -0.031  -0.009   0.013   0.014   0.023   0.041   0.045
 22 B    23 A    24 A    25 A    23 B    24 B    26 A    25 B                  
  0.051   0.067   0.070   0.076   0.114   0.137   0.144   0.193
 27 A    26 B    28 A    29 A    27 B    28 B    30 A    31 A                  
  0.197   0.201   0.209   0.221   0.223   0.240   0.262   0.265
 29 B    32 A    30 B    33 A    31 B    32 B    33 B    34 A                  
  0.282   0.283   0.301   0.303   0.314   0.321   0.341   0.349
 35 A    34 B    35 B    36 A    36 B    37 A    37 B    38 A                  
  0.363   0.369   0.379   0.383   0.383   0.395   0.397   0.405
 38 B    39 A    40 A    41 A    39 B    42 A    40 B    41 B                  
  0.415   0.425   0.439   0.444   0.453   0.457   0.463   0.463
 43 A    42 B    44 A    43 B    45 A    44 B    45 B    46 A                  
  0.475   0.480   0.497   0.512   0.513   0.532   0.568   0.569
 47 A    46 B    48 A    49 A    47 B    48 B    49 B    50 A                  
  0.573   0.589   0.615   0.627   0.648   0.651   0.675   0.693
 51 A    50 B    52 A    51 B    52 B    53 A    54 A    53 B                  
  0.693   0.714   0.723   0.737   0.755   0.760   0.776   0.780
 55 A    54 B    56 A    55 B    57 A    56 B    57 B    58 A                  
  0.813   0.822   0.830   0.847   0.882   0.905   0.911   0.912
 58 B    59 A    59 B    60 A    60 B    61 A    62 A    61 B                  
  0.916   0.920   0.938   0.944   0.969   0.991   0.993   0.997
 63 A    62 B    63 B    64 A    64 B    65 B    65 A    66 A                  
  1.029   1.040   1.053   1.056   1.076   1.092   1.096   1.119
 66 B    67 A    67 B    68 A    68 B    69 B    69 A    70 B                  
  1.119   1.147   1.148   1.170   1.208   1.221   1.248   1.263
 70 A    71 B    71 A    72 A    73 A    72 B    74 A    73 B                  
  1.287   1.289   1.305   1.316   1.341   1.352   1.352   1.370
 75 A    74 B    76 A    75 B    77 A    76 B    78 A    77 B                  
  1.386   1.386   1.403   1.403   1.428   1.433   1.469   1.473
 78 B    79 A    79 B    80 A    81 A    80 B    81 B    82 A                  
  1.489   1.495   1.535   1.562   1.580   1.592   1.644   1.648
 83 A    82 B    83 B    84 A    84 B    85 A    86 A    85 B                  
  1.675   1.696   1.699   1.714   1.721   1.749   1.755   1.786
 86 B    87 A    87 B    88 B    88 A    89 B    89 A    90 B                  
  1.795   1.803   1.900   1.905   1.912   1.942   1.948   1.986
 90 A    91 A    91 B    92 A    92 B    93 A    93 B    94 A                  
  2.000   2.020   2.034   2.037   2.061   2.068   2.079   2.100
 94 B    95 A    95 B    96 A    96 B    97 A    97 B    98 B                  
  2.108   2.118   2.137   2.227   2.240   2.264   2.275   2.303
 98 A    99 A    99 B   100 B   100 A   101 A   101 B   102 A                  
  2.315   2.318   2.326   2.358   2.372   2.372   2.401   2.409
102 B   103 A   103 B   104 A   104 B   105 A   105 B   106 A                  
  2.443   2.485   2.494   2.498   2.531   2.560   2.573   2.573
106 B   107 A   108 A   107 B   109 A   108 B   110 A   109 B                  
  2.587   2.593   2.623   2.628   2.641   2.699   2.715   2.718
111 A   110 B   112 A   111 B   112 B   113 A   113 B   114 A                  
  2.723   2.747   2.760   2.773   2.814   2.819   2.838   2.855
114 B   115 A   115 B   116 A   116 B   117 A   118 A   117 B                  
  2.862   2.868   2.917   2.924   2.976   2.979   2.998   3.011
119 A   118 B   120 A   119 B   120 B   121 A   122 A   121 B                  
  3.031   3.048   3.049   3.065   3.069   3.075   3.079   3.118
122 B   123 B   123 A   124 A   124 B   125 B   125 A   126 B                  
  3.122   3.127   3.131   3.135   3.171   3.177   3.206   3.220
126 A   127 A   127 B   128 A   129 A   128 B   130 A   129 B                  
  3.230   3.238   3.244   3.267   3.272   3.278   3.292   3.298
131 A   132 A   130 B   131 B   133 A   134 A   135 A   132 B                  
  3.320   3.324   3.328   3.332   3.343   3.354   3.356   3.372
133 B   134 B   135 B   136 A   137 A   136 B   138 A   137 B                  
  3.379   3.384   3.409   3.418   3.422   3.444   3.449   3.491
138 B   139 A   139 B   140 A   140 B   141 A   141 B   142 A                  
  3.510   3.514   3.544   3.558   3.570   3.579   3.604   3.617
142 B   143 B   143 A   144 B   144 A   145 A   145 B   146 A                  
  3.626   3.650   3.719   3.721   3.733   3.748   3.751   3.782
147 A   146 B   148 A   147 B   148 B   149 A   149 B   150 B                  
  3.797   3.818   3.827   3.840   3.843   3.865   3.873   3.888
150 A   151 A   152 A   151 B   152 B   153 A   154 A   153 B                  
  3.938   3.941   3.974   3.978   3.984   4.017   4.022   4.023
155 A   154 B   156 A   155 B   157 A   156 B   157 B   158 A                  
  4.038   4.041   4.049   4.055   4.103   4.139   4.141   4.146
158 B   159 A   160 A   159 B   161 A   162 A   160 B   161 B                  
  4.180   4.201   4.255   4.290   4.316   4.321   4.330   4.354
162 B   163 A   163 B   164 A   165 A   166 A   164 B   167 A                  
  4.356   4.403   4.438   4.452   4.476   4.500   4.508   4.541
165 B   166 B   167 B   168 A   169 A   168 B   170 A   169 B                  
  4.543   4.555   4.585   4.599   4.642   4.670   4.687   4.724
171 A   170 B   171 B   172 A   173 A   172 B   174 A   175 A                  
  4.725   4.802   4.822   4.834   4.857   4.893   4.903   4.914
173 B   174 B   175 B   176 A   177 A   176 B   178 A   179 A                  
  4.934   4.990   5.041   5.051   5.080   5.111   5.179   5.184
177 B   178 B   180 A   179 B   180 B   181 A   181 B   182 A                  
  5.228   5.258   5.269   5.298   5.411   5.424   5.465   5.525
183 A   182 B   183 B   184 A   185 A   184 B   185 B   186 A                  
  5.649   5.738   5.861   5.906   5.936   5.970   6.016   6.070
187 A   186 B   188 A   187 B   189 A   188 B   190 A   189 B                  
  6.294   6.358   6.434   6.531   6.660   9.175  10.942  11.693
190 B   191 A   191 B   192 A   192 B   193 A   193 B   194 A                  
 12.660  13.022  13.708  14.503  15.008
194 B   195 A   195 B   196 A   196 B                                          
 
 Beta MOs, Unrestricted
 -- Occupied --                  
-92.162 -92.162 -11.476 -11.475 -11.439 -11.439 -11.426 -11.426
  1 A     1 B     2 A     2 B     3 B     3 A     4 B     4 A                  
-11.410 -11.410  -9.164  -9.164  -6.845  -6.845  -6.844  -6.844
  5 B     5 A     6 B     6 A     7 B     7 A     8 B     8 A                  
 -6.844  -6.844  -1.383  -1.349  -1.221  -1.188  -1.175  -1.105
  9 B     9 A    10 A    10 B    11 A    12 A    11 B    12 B                  
 -0.992  -0.953  -0.915  -0.900  -0.889  -0.818  -0.752  -0.743
 13 A    14 A    13 B    14 B    15 A    15 B    16 A    17 A                  
 -0.734  -0.729  -0.720  -0.685  -0.669  -0.661  -0.644  -0.539
 16 B    18 A    17 B    18 B    19 A    20 A    19 B    20 B                  
 -0.533  -0.515
 21 A    21 B                                                                  
 -- Virtual --                   
 -0.180  -0.057  -0.020   0.009   0.018   0.025   0.030   0.043
 22 A    22 B    23 A    24 A    25 A    23 B    24 B    26 A                  
  0.046   0.062   0.069   0.073   0.091   0.116   0.140   0.146
 25 B    27 A    26 B    28 A    29 A    27 B    28 B    30 A                  
  0.199   0.200   0.203   0.214   0.222   0.224   0.243   0.271
 31 A    29 B    32 A    30 B    33 A    31 B    32 B    33 B                  
  0.272   0.285   0.292   0.304   0.311   0.319   0.320   0.336
 34 A    35 A    34 B    36 A    35 B    36 B    37 A    37 B                  
  0.355   0.376   0.377   0.390   0.392   0.394   0.411   0.413
 38 A    39 A    38 B    40 A    39 B    41 A    40 B    42 A                  
  0.414   0.426   0.427   0.443   0.445   0.458   0.464   0.467
 41 B    42 B    43 A    44 A    43 B    45 A    44 B    45 B                  
  0.470   0.480   0.486   0.505   0.515   0.518   0.537   0.570
 46 A    47 A    46 B    48 A    49 A    47 B    48 B    50 A                  
  0.571   0.575   0.594   0.616   0.629   0.650   0.652   0.678
 49 B    51 A    50 B    52 A    51 B    52 B    53 A    54 A                  
  0.695   0.697   0.720   0.730   0.742   0.758   0.763   0.783
 53 B    55 A    54 B    56 A    55 B    57 A    56 B    58 A                  
  0.784   0.816   0.826   0.832   0.849   0.885   0.905   0.913
 57 B    58 B    59 A    59 B    60 A    60 B    61 A    61 B                  
  0.916   0.922   0.925   0.941   0.954   0.973   0.994   0.998
 62 A    63 A    62 B    63 B    64 A    64 B    65 B    65 A                  
  0.998   1.035   1.042   1.055   1.060   1.077   1.097   1.101
 66 A    66 B    67 A    67 B    68 A    68 B    69 B    69 A                  
  1.119   1.120   1.153   1.156   1.172   1.215   1.229   1.258
 70 B    70 A    71 B    71 A    72 A    73 A    72 B    74 A                  
  1.265   1.291   1.296   1.311   1.321   1.344   1.355   1.356
 73 B    75 A    74 B    76 A    75 B    77 A    78 A    76 B                  
  1.374   1.387   1.389   1.405   1.406   1.432   1.435   1.475
 77 B    78 B    79 A    79 B    80 A    81 A    80 B    81 B                  
  1.477   1.493   1.498   1.535   1.564   1.583   1.594   1.646
 82 A    83 A    82 B    83 B    84 A    84 B    85 A    86 A                  
  1.649   1.675   1.695   1.698   1.718   1.721   1.750   1.758
 85 B    86 B    87 A    87 B    88 B    88 A    89 B    89 A                  
  1.786   1.796   1.804   1.900   1.905   1.912   1.945   1.949
 90 B    90 A    91 A    91 B    92 A    92 B    93 A    93 B                  
  1.986   2.000   2.020   2.034   2.038   2.062   2.068   2.079
 94 A    94 B    95 A    95 B    96 A    96 B    97 A    97 B                  
  2.116   2.117   2.128   2.139   2.238   2.242   2.265   2.271
 98 B    98 A    99 A    99 B   100 A   100 B   101 A   101 B                  
  2.307   2.318   2.322   2.330   2.360   2.384   2.390   2.403
102 A   102 B   103 A   103 B   104 A   104 B   105 A   105 B                  
  2.415   2.451   2.488   2.495   2.503   2.532   2.563   2.579
106 A   106 B   107 A   108 A   107 B   109 A   108 B   109 B                  
  2.580   2.596   2.599   2.629   2.634   2.644   2.704   2.721
110 A   111 A   110 B   112 A   111 B   112 B   113 A   113 B                  
  2.727   2.728   2.751   2.771   2.776   2.817   2.822   2.845
114 A   114 B   115 A   115 B   116 A   116 B   117 A   118 A                  
  2.863   2.871   2.872   2.924   2.927   2.980   2.983   2.999
117 B   119 A   118 B   120 A   119 B   120 B   121 A   122 A                  
  3.023   3.034   3.048   3.053   3.072   3.073   3.084   3.084
121 B   122 B   123 B   123 A   124 A   124 B   125 B   125 A                  
  3.124   3.124   3.134   3.138   3.148   3.178   3.183   3.209
126 B   126 A   127 A   127 B   128 A   129 A   128 B   130 A                  
  3.221   3.232   3.243   3.246   3.274   3.275   3.285   3.295
129 B   131 A   132 A   130 B   131 B   133 A   134 A   135 A                  
  3.301   3.325   3.332   3.340   3.341   3.351   3.357   3.363
132 B   133 B   134 B   135 B   136 A   137 A   136 B   138 A                  
  3.376   3.382   3.387   3.417   3.421   3.424   3.447   3.453
137 B   138 B   139 A   139 B   140 A   140 B   141 A   141 B                  
  3.494   3.514   3.519   3.549   3.562   3.572   3.583   3.610
142 A   142 B   143 B   143 A   144 B   144 A   145 A   145 B                  
  3.621   3.632   3.652   3.722   3.727   3.737   3.749   3.753
146 A   147 A   146 B   147 B   148 A   148 B   149 A   149 B                  
  3.784   3.799   3.820   3.829   3.844   3.848   3.868   3.876
150 B   150 A   151 A   152 A   151 B   152 B   153 A   154 A                  
  3.890   3.940   3.944   3.976   3.981   3.986   4.018   4.023
153 B   155 A   154 B   156 A   155 B   157 A   156 B   158 A                  
  4.025   4.040   4.043   4.050   4.056   4.105   4.140   4.142
157 B   158 B   159 A   160 A   159 B   161 A   162 A   160 B                  
  4.147   4.181   4.203   4.255   4.291   4.317   4.322   4.332
161 B   162 B   163 A   163 B   164 A   165 A   166 A   164 B                  
  4.355   4.357   4.405   4.442   4.456   4.478   4.501   4.509
167 A   165 B   166 B   167 B   168 A   169 A   168 B   170 A                  
  4.543   4.546   4.558   4.586   4.601   4.642   4.671   4.689
169 B   171 A   170 B   171 B   172 A   173 A   172 B   174 A                  
  4.726   4.726   4.805   4.824   4.835   4.861   4.894   4.904
173 B   175 A   174 B   175 B   176 A   177 A   176 B   178 A                  
  4.916   4.936   4.990   5.042   5.052   5.087   5.117   5.180
179 A   177 B   178 B   180 A   179 B   180 B   181 A   181 B                  
  5.186   5.230   5.259   5.270   5.299   5.412   5.425   5.466
182 A   183 A   182 B   183 B   184 A   185 A   184 B   185 B                  
  5.527   5.650   5.739   5.862   5.907   5.937   5.970   6.016
186 A   187 A   186 B   188 A   187 B   189 A   188 B   190 A                  
  6.071   6.294   6.359   6.435   6.531   6.661   9.177  10.945
189 B   190 B   191 A   191 B   192 A   192 B   193 A   193 B                  
 11.697  12.664  13.027  13.709  14.504  15.011
194 A   194 B   195 A   195 B   196 A   196 B                                  
 --------------------------------------------------------------
 
          Ground-State Mulliken Net Atomic Charges

     Atom                 Charge (a.u.)    Spin (a.u.)
  --------------------------------------------------------
      1 S                     0.243682      -0.030688
      2 C                    -0.111110       0.014992
      3 C                    -0.169250       0.382265
      4 C                    -0.119598      -0.184891
      5 C                    -0.019484       0.321033
      6 H                     0.210023       0.018507
      7 C                    -0.019484       0.321033
      8 S                     0.243682      -0.030688
      9 C                    -0.119598      -0.184891
     10 C                    -0.111110       0.014992
     11 C                    -0.169250       0.382265
     12 H                     0.224538      -0.031156
     13 H                     0.241198       0.009938
     14 H                     0.224538      -0.031156
     15 H                     0.241198       0.009938
     16 H                     0.210023       0.018507
  --------------------------------------------------------
  Sum of atomic charges =     1.000000
  Sum of spin   charges =     1.000000

 -----------------------------------------------------------------
                    Cartesian Multipole Moments
 -----------------------------------------------------------------
    Charge (ESU x 10^10)
                 4.8032
    Dipole Moment (Debye)
         X      -0.0000      Y      -0.0000      Z      -0.9318
       Tot       0.9318
    Quadrupole Moments (Debye-Ang)
        XX     -22.3656     XY      -0.9912     YY     -72.6812
        XZ      -0.0000     YZ      -0.0000     ZZ     -56.3209
    Octopole Moments (Debye-Ang^2)
       XXX      -0.0000    XXY      -0.0000    XYY      -0.0000
       YYY      -0.0000    XXZ       2.3505    XYZ       8.8551
[...]
 ******************************

                       Coordinates (Angstroms)
     ATOM                X               Y               Z
      1  S         1.6229529778    0.2341576427    1.1487614731
      2  C         3.0476226472    0.0157012358    0.3199498519
      3  C         2.8810145992   -0.2340223857   -1.0301100384
      4  C         1.5612755550   -0.2324370352   -1.3856626533
      5  C         0.6996713738    0.0242217230   -0.3171210119
      6  H         1.2046345243   -0.4277090489   -2.3813187671
      7  C        -0.6996713738   -0.0242217230   -0.3171210119
      8  S        -1.6229529778   -0.2341576427    1.1487614731
      9  C        -1.5612755550    0.2324370352   -1.3856626533
     10  C        -3.0476226472   -0.0157012358    0.3199498519
     11  C        -2.8810145992    0.2340223857   -1.0301100384
     12  H        -3.7032161573    0.4143190016   -1.6960944051
     13  H         3.9859361066    0.0887110691    0.8393494798
     14  H         3.7032161573   -0.4143190016   -1.6960944051
     15  H        -3.9859361066   -0.0887110691    0.8393494798
     16  H        -1.2046345243    0.4277090489   -2.3813187671

Z-matrix Print:
$molecule
1 2
S 
C  1 1.662629
H  2 1.074960 1 119.878772
C  2 1.383034 1 114.023408 3 179.141112 0
H  4 1.073339 2 122.938373 1 178.843657 0
C  4 1.366796 2 111.718241 1 -0.572070 0
H  6 1.075479 4 124.111982 2 178.520223 0
C  6 1.396430 4 113.385820 2 -0.287756 0
C  8 1.400181 6 127.609502 4 173.700227 0
C  9 1.396430 8 127.609502 6 30.000000 0
H  10 1.075479 9 122.491026 8 -5.129705 0
C  10 1.366796 9 113.385820 8 173.700227 0
H  12 1.073339 10 125.340538 9 -179.686630 0
C  12 1.383034 10 111.718241 9 -0.287756 0
H  14 1.074960 12 126.091511 10 178.506322 0
S  14 1.662629 12 114.023408 10 -0.572070 0
$end

 
 --------------------------------------------------------------
             Orbital Energies (a.u.) and Symmetries
 --------------------------------------------------------------
 
 Alpha MOs, Unrestricted
 -- Occupied --                  
-92.160 -92.160 -11.476 -11.475 -11.452 -11.452 -11.434 -11.434
  1 A     1 B     2 A     2 B     3 B     3 A     4 B     4 A                  
-11.403 -11.403  -9.163  -9.163  -6.843  -6.843  -6.843  -6.843
  5 A     5 B     6 B     6 A     7 B     7 A     8 A     8 B                  
 -6.840  -6.840  -1.395  -1.364  -1.232  -1.192  -1.183  -1.129
  9 A     9 B    10 A    10 B    11 A    12 A    11 B    12 B                  
 -1.001  -0.961  -0.925  -0.905  -0.892  -0.822  -0.753  -0.752
 13 A    14 A    13 B    14 B    15 A    15 B    16 A    16 B                  
 -0.750  -0.736  -0.732  -0.710  -0.692  -0.669  -0.644  -0.582
 17 A    17 B    18 A    19 A    18 B    20 A    19 B    20 B                  
 -0.535  -0.526  -0.477
 21 A    21 B    22 A                                                          
 -- Virtual --                   
 -0.127  -0.029  -0.009   0.013   0.014   0.023   0.041   0.046
 22 B    23 A    24 A    25 A    23 B    24 B    26 A    25 B                  
  0.052   0.067   0.070   0.075   0.116   0.138   0.142   0.192
 27 A    26 B    28 A    29 A    27 B    28 B    30 A    31 A                  
  0.198   0.201   0.212   0.220   0.221   0.242   0.262   0.265
 29 B    32 A    30 B    31 B    33 A    32 B    33 B    34 A                  
  0.281   0.282   0.301   0.303   0.314   0.320   0.340   0.349
 35 A    34 B    35 B    36 A    36 B    37 A    37 B    38 A                  
  0.362   0.370   0.379   0.384   0.384   0.396   0.396   0.407
 38 B    39 A    40 A    41 A    39 B    42 A    40 B    41 B                  
  0.415   0.424   0.440   0.442   0.452   0.457   0.464   0.466
 43 A    42 B    44 A    43 B    45 A    44 B    46 A    45 B                  
  0.475   0.481   0.494   0.512   0.513   0.534   0.568   0.570
 47 A    46 B    48 A    49 A    47 B    48 B    49 B    50 A                  
  0.574   0.588   0.613   0.628   0.648   0.653   0.673   0.692
 51 A    50 B    52 A    51 B    52 B    53 A    54 A    53 B                  
  0.695   0.714   0.724   0.740   0.754   0.765   0.776   0.777
 55 A    54 B    56 A    55 B    57 A    56 B    57 B    58 A                  
  0.812   0.816   0.830   0.845   0.883   0.901   0.913   0.915
 58 B    59 A    59 B    60 A    60 B    61 A    62 A    61 B                  
  0.916   0.923   0.937   0.945   0.966   0.985   0.990   0.997
 63 A    62 B    63 B    64 A    64 B    65 B    65 A    66 A                  
  1.026   1.041   1.052   1.058   1.076   1.093   1.095   1.113
 66 B    67 A    67 B    68 A    68 B    69 B    69 A    70 A                  
  1.120   1.147   1.148   1.168   1.203   1.219   1.247   1.265
 70 B    71 B    71 A    72 A    73 A    72 B    74 A    73 B                  
  1.284   1.291   1.303   1.316   1.339   1.352   1.355   1.371
 75 A    74 B    76 A    75 B    77 A    78 A    76 B    77 B                  
  1.387   1.387   1.403   1.405   1.427   1.432   1.467   1.472
 78 B    79 A    79 B    80 A    81 A    80 B    81 B    82 A                  
  1.490   1.496   1.533   1.563   1.583   1.593   1.641   1.651
 83 A    82 B    83 B    84 A    84 B    85 A    86 A    85 B                  
  1.676   1.696   1.703   1.715   1.724   1.747   1.754   1.787
 86 B    87 A    87 B    88 B    88 A    89 B    89 A    90 B                  
  1.796   1.806   1.901   1.904   1.912   1.942   1.954   1.983
 90 A    91 A    92 A    91 B    92 B    93 A    93 B    94 A                  
  1.999   2.017   2.034   2.037   2.061   2.062   2.083   2.099
 94 B    95 A    95 B    96 A    96 B    97 A    97 B    98 B                  
  2.108   2.117   2.134   2.219   2.243   2.264   2.274   2.304
 98 A    99 A    99 B   100 B   100 A   101 A   101 B   102 A                  
  2.310   2.318   2.326   2.357   2.370   2.373   2.404   2.407
102 B   103 A   103 B   104 A   104 B   105 A   105 B   106 A                  
  2.439   2.485   2.495   2.507   2.529   2.565   2.569   2.574
106 B   107 A   108 A   107 B   109 A   108 B   110 A   109 B                  
  2.586   2.596   2.622   2.629   2.645   2.700   2.716   2.719
111 A   110 B   112 A   111 B   112 B   113 A   113 B   114 A                  
  2.723   2.746   2.756   2.768   2.817   2.820   2.836   2.856
114 B   115 A   115 B   116 A   116 B   117 A   118 A   117 B                  
  2.866   2.873   2.913   2.924   2.974   2.978   2.999   3.014
119 A   118 B   120 A   119 B   121 A   120 B   122 A   121 B                  
  3.030   3.048   3.050   3.063   3.072   3.080   3.081   3.118
122 B   123 B   123 A   124 A   124 B   125 B   125 A   126 B                  
  3.124   3.130   3.131   3.135   3.164   3.175   3.204   3.223
126 A   127 B   127 A   128 A   129 A   128 B   130 A   129 B                  
  3.228   3.239   3.245   3.264   3.275   3.278   3.294   3.302
131 A   132 A   130 B   131 B   133 A   134 A   135 A   132 B                  
  3.318   3.325   3.328   3.334   3.341   3.353   3.355   3.371
133 B   134 B   135 B   136 A   137 A   136 B   138 A   137 B                  
  3.379   3.384   3.406   3.414   3.415   3.442   3.451   3.494
138 B   139 A   139 B   140 B   140 A   141 A   141 B   142 A                  
  3.505   3.515   3.543   3.557   3.571   3.583   3.603   3.614
142 B   143 B   143 A   144 B   144 A   145 A   145 B   146 A                  
  3.628   3.649   3.719   3.721   3.731   3.744   3.752   3.786
147 A   146 B   148 A   147 B   148 B   149 A   149 B   150 B                  
  3.796   3.817   3.828   3.840   3.843   3.861   3.872   3.891
150 A   151 A   152 A   151 B   152 B   153 A   154 A   153 B                  
  3.935   3.939   3.976   3.977   3.979   4.017   4.020   4.025
155 A   154 B   156 A   155 B   157 A   156 B   157 B   158 A                  
  4.037   4.042   4.049   4.060   4.100   4.136   4.142   4.150
158 B   159 A   160 A   159 B   161 A   162 A   160 B   161 B                  
  4.175   4.199   4.256   4.291   4.313   4.322   4.329   4.351
162 B   163 A   163 B   164 A   165 A   166 A   164 B   165 B                  
  4.358   4.400   4.439   4.453   4.476   4.501   4.509   4.539
167 A   166 B   167 B   168 A   169 A   168 B   170 A   169 B                  
  4.543   4.557   4.586   4.591   4.640   4.672   4.687   4.724
171 A   170 B   171 B   172 A   173 A   172 B   174 A   175 A                  
  4.736   4.798   4.825   4.830   4.860   4.892   4.901   4.914
173 B   174 B   175 B   176 A   177 A   176 B   178 A   179 A                  
  4.935   4.990   5.039   5.052   5.081   5.113   5.181   5.185
177 B   178 B   180 A   179 B   180 B   181 A   181 B   182 A                  
  5.228   5.260   5.272   5.299   5.412   5.424   5.465   5.524
183 A   182 B   183 B   184 A   185 A   184 B   185 B   186 A                  
  5.647   5.736   5.858   5.909   5.934   5.972   6.013   6.071
187 A   186 B   188 A   187 B   189 A   188 B   190 A   189 B                  
  6.294   6.355   6.434   6.534   6.654   9.152  10.938  11.667
190 B   191 A   191 B   192 A   192 B   193 A   193 B   194 A                  
 12.716  13.017  13.721  14.495  14.988
194 B   195 A   195 B   196 A   196 B                                          
 
 Beta MOs, Unrestricted
 -- Occupied --                  
-92.162 -92.162 -11.476 -11.475 -11.439 -11.439 -11.427 -11.427
  1 A     1 B     2 A     2 B     3 B     3 A     4 B     4 A                  
-11.410 -11.410  -9.164  -9.164  -6.845  -6.845  -6.844  -6.844
  5 B     5 A     6 B     6 A     7 B     7 A     8 B     8 A                  
 -6.844  -6.844  -1.383  -1.349  -1.222  -1.188  -1.174  -1.105
  9 B     9 A    10 A    10 B    11 A    12 A    11 B    12 B                  
 -0.992  -0.953  -0.914  -0.899  -0.889  -0.818  -0.752  -0.743
 13 A    14 A    13 B    14 B    15 A    15 B    16 A    17 A                  
 -0.733  -0.730  -0.721  -0.684  -0.669  -0.661  -0.643  -0.540
 16 B    18 A    17 B    18 B    19 A    20 A    19 B    20 B                  
 -0.533  -0.517
 21 A    21 B                                                                  
 -- Virtual --                   
 -0.179  -0.058  -0.019   0.010   0.018   0.025   0.030   0.043
 22 A    22 B    23 A    24 A    25 A    23 B    24 B    26 A                  
  0.047   0.062   0.070   0.073   0.091   0.118   0.142   0.144
 25 B    27 A    26 B    28 A    29 A    27 B    28 B    30 A                  
  0.198   0.201   0.203   0.217   0.221   0.221   0.244   0.271
 31 A    29 B    32 A    30 B    31 B    33 A    32 B    33 B                  
  0.273   0.285   0.291   0.305   0.310   0.320   0.320   0.337
 34 A    35 A    34 B    36 A    35 B    37 A    36 B    37 B                  
  0.354   0.377   0.378   0.389   0.393   0.394   0.412   0.412
 38 A    38 B    39 A    40 A    39 B    41 A    40 B    42 A                  
  0.413   0.425   0.428   0.444   0.444   0.457   0.464   0.469
 41 B    42 B    43 A    43 B    44 A    45 A    44 B    45 B                  
  0.470   0.480   0.487   0.503   0.514   0.519   0.538   0.571
 46 A    47 A    46 B    48 A    49 A    47 B    48 B    50 A                  
  0.571   0.577   0.593   0.615   0.629   0.650   0.654   0.676
 49 B    51 A    50 B    52 A    51 B    52 B    53 A    54 A                  
  0.694   0.697   0.720   0.732   0.746   0.757   0.767   0.780
 53 B    55 A    54 B    56 A    55 B    57 A    56 B    58 A                  
  0.784   0.815   0.819   0.832   0.848   0.887   0.903   0.915
 57 B    58 B    59 A    59 B    60 A    60 B    61 A    62 A                  
  0.916   0.922   0.929   0.937   0.955   0.970   0.988   0.993
 61 B    63 A    62 B    63 B    64 A    64 B    65 B    65 A                  
  1.000   1.032   1.043   1.054   1.062   1.078   1.098   1.100
 66 A    66 B    67 A    67 B    68 A    68 B    69 B    69 A                  
  1.114   1.121   1.153   1.155   1.170   1.209   1.227   1.257
 70 A    70 B    71 B    71 A    72 A    73 A    72 B    74 A                  
  1.267   1.286   1.297   1.309   1.322   1.342   1.354   1.360
 73 B    75 A    74 B    76 A    75 B    77 A    78 A    76 B                  
  1.375   1.388   1.390   1.406   1.407   1.430   1.434   1.474
 77 B    78 B    79 A    79 B    80 A    81 A    80 B    81 B                  
  1.475   1.493   1.499   1.533   1.565   1.586   1.596   1.643
 82 A    83 A    82 B    83 B    84 A    84 B    85 A    86 A                  
  1.651   1.677   1.695   1.703   1.718   1.724   1.748   1.757
 85 B    86 B    87 A    87 B    88 B    88 A    89 B    89 A                  
  1.786   1.797   1.807   1.901   1.904   1.912   1.945   1.955
 90 B    90 A    91 A    92 A    91 B    92 B    93 A    93 B                  
  1.982   1.998   2.017   2.034   2.038   2.061   2.062   2.083
 94 A    94 B    95 A    95 B    96 A    96 B    97 A    97 B                  
  2.115   2.117   2.127   2.136   2.233   2.240   2.266   2.269
 98 B    98 A    99 A    99 B   100 B   100 A   101 A   101 B                  
  2.308   2.315   2.324   2.330   2.359   2.382   2.390   2.407
102 A   102 B   103 A   103 B   104 A   104 B   105 A   105 B                  
  2.413   2.447   2.488   2.496   2.511   2.530   2.569   2.575
106 A   106 B   107 A   108 A   107 B   109 A   108 B   110 A                  
  2.579   2.596   2.602   2.628   2.634   2.647   2.705   2.724
109 B   111 A   110 B   112 A   111 B   112 B   113 A   113 B                  
  2.726   2.728   2.751   2.766   2.771   2.820   2.823   2.844
114 B   114 A   115 A   115 B   116 A   116 B   117 A   118 A                  
  2.865   2.876   2.876   2.921   2.928   2.977   2.982   2.999
117 B   119 A   118 B   120 A   119 B   121 A   120 B   122 A                  
  3.026   3.033   3.048   3.054   3.071   3.076   3.087   3.087
121 B   122 B   123 B   123 A   124 A   124 B   125 A   125 B                  
  3.123   3.126   3.137   3.138   3.147   3.173   3.181   3.207
126 B   126 A   127 B   127 A   128 A   129 A   128 B   130 A                  
  3.223   3.230   3.244   3.247   3.271   3.276   3.285   3.298
129 B   131 A   132 A   130 B   131 B   133 A   134 A   135 A                  
  3.305   3.327   3.332   3.338   3.341   3.350   3.356   3.363
132 B   133 B   134 B   135 B   136 A   137 A   136 B   138 A                  
  3.375   3.383   3.387   3.411   3.418   3.419   3.445   3.455
137 B   138 B   139 A   139 B   140 A   140 B   141 A   141 B                  
  3.497   3.509   3.521   3.548   3.562   3.573   3.587   3.610
142 A   142 B   143 B   143 A   144 B   144 A   145 A   145 B                  
  3.618   3.633   3.652   3.723   3.727   3.735   3.745   3.755
146 A   147 A   146 B   147 B   148 A   148 B   149 A   149 B                  
  3.788   3.799   3.819   3.830   3.843   3.849   3.864   3.874
150 B   150 A   151 A   152 A   151 B   152 B   153 A   154 A                  
  3.893   3.936   3.941   3.978   3.980   3.982   4.017   4.024
153 B   155 A   154 B   156 A   155 B   157 A   156 B   157 B                  
  4.026   4.040   4.044   4.051   4.062   4.102   4.137   4.143
158 A   158 B   159 A   160 A   159 B   161 A   162 A   160 B                  
  4.151   4.176   4.201   4.257   4.292   4.314   4.323   4.331
161 B   162 B   163 A   163 B   164 A   165 A   166 A   164 B                  
  4.352   4.359   4.402   4.443   4.457   4.479   4.502   4.510
165 B   167 A   166 B   167 B   168 A   169 A   168 B   170 A                  
  4.542   4.546   4.559   4.586   4.593   4.641   4.673   4.689
169 B   171 A   170 B   171 B   172 A   173 A   172 B   174 A                  
  4.726   4.737   4.802   4.828   4.831   4.864   4.893   4.902
175 A   173 B   174 B   175 B   176 A   177 A   176 B   178 A                  
  4.916   4.937   4.990   5.039   5.054   5.088   5.119   5.182
179 A   177 B   178 B   180 A   179 B   180 B   181 A   181 B                  
  5.187   5.230   5.261   5.273   5.299   5.413   5.426   5.466
182 A   183 A   182 B   183 B   184 A   185 A   184 B   185 B                  
  5.525   5.647   5.737   5.858   5.910   5.935   5.972   6.012
186 A   187 A   186 B   188 A   187 B   189 A   188 B   190 A                  
  6.073   6.294   6.356   6.434   6.534   6.655   9.154  10.942
189 B   190 B   191 A   191 B   192 A   192 B   193 A   193 B                  
 11.670  12.720  13.022  13.721  14.496  14.991
194 A   194 B   195 A   195 B   196 A   196 B                                  
 --------------------------------------------------------------
 
          Ground-State Mulliken Net Atomic Charges

     Atom                 Charge (a.u.)    Spin (a.u.)
  --------------------------------------------------------
      1 S                     0.240207      -0.032735
      2 C                    -0.110552       0.023106
      3 C                    -0.169343       0.369221
      4 C                    -0.119217      -0.172278
      5 C                    -0.016011       0.315773
      6 H                     0.209112       0.017941
      7 C                    -0.016011       0.315773
      8 S                     0.240207      -0.032735
      9 C                    -0.119217      -0.172278
     10 C                    -0.110552       0.023106
     11 C                    -0.169343       0.369221
     12 H                     0.224756      -0.030487
     13 H                     0.241048       0.009459
     14 H                     0.224756      -0.030487
     15 H                     0.241048       0.009459
     16 H                     0.209112       0.017941
  --------------------------------------------------------
  Sum of atomic charges =     1.000000
  Sum of spin   charges =     1.000000

 -----------------------------------------------------------------
                    Cartesian Multipole Moments
 -----------------------------------------------------------------
    Charge (ESU x 10^10)
                 4.8032
    Dipole Moment (Debye)
         X      -0.0000      Y       0.0000      Z      -0.9666
       Tot       0.9666
    Quadrupole Moments (Debye-Ang)
        XX     -22.3928     XY      -1.2252     YY     -72.8708
        XZ       0.0000     YZ      -0.0000     ZZ     -56.1355
    Octopole Moments (Debye-Ang^2)
       XXX      -0.0000    XXY       0.0000    XYY      -0.0000
       YYY       0.0000    XXZ       2.3943    XYZ       7.8430
       YYZ       2.3714    XZZ      -0.0000    YZZ       0.0000
       ZZZ     -14.8954
    Hexadecapole Moments (Debye-Ang^3)
      XXXX   -1260.1043   XXXY      -7.8851   XXYY    -360.4496
      XYYY      11.1012   YYYY    -104.2382   XXXZ       0.0000
      XXYZ      -0.0000   XYYZ       0.0000   YYYZ      -0.0000
      XXZZ    -324.1232   XYZZ      -7.0577   YYZZ    -108.7186
      XZZZ       0.0000   YZZZ      -0.0000   ZZZZ    -474.2745
 -----------------------------------------------------------------
Archival summary:
1\1\nid01577\OPT\MP2\BasisUnspecified\286(1+,2)\TueMar711:03:112017TueMar711:03:112017\0\\#,OPT,MP2,BasisUnspecified,\\1,2\S\C,1,1.66263\H,2,1.07496,1,119.879\C,2,1.38303,1,114.023,3,179.141,0\H,4,1.07334,2,122.938,1,178.844,0\C,4,1.3668,2,111.718,1,-0.57207,0\H,6,1.07548,4,124.112,2,178.52,0\C,6,1.39643,4,113.386,2,-0.287756,0\C,8,1.40018,6,127.61,4,173.7,0\C,9,1.39643,8,127.61,6,30,0\H,10,1.07548,9,122.491,8,-5.1297,0\C,10,1.3668,9,113.386,8,173.7,0\H,12,1.07334,10,125.341,9,-179.687,0\C,12,1.38303,10,111.718,9,-0.287756,0\H,14,1.07496,12,126.092,10,178.506,0\S,14,1.66263,12,114.023,10,-0.57207,0\\HF=-1101.36444\MP2=-1103.10647\\@

 Total job time:  21406.69s(wall), 106036.59s(cpu) 
 Tue Mar  7 11:03:11 2017

        *************************************************************
        *                                                           *
        *  Thank you very much for using Q-Chem.  Have a nice day.  *
        *                                                           *
        *************************************************************


0 sent ACK to 0 
now end server 0 ... 
